# vtk DataFile Version 2.0
FEM results (displaced points, displacements, cell stress)
ASCII
DATASET UNSTRUCTURED_GRID
POINTS 2465 float
0 0 0
0 1 0
1.029387 0.9703703 0
0.9727228 -0.02935867 0
2.058947 0.8852156 0
1.945297 -0.1145194 0
3.088486 0.743029 0
2.917848 -0.2566197 0
4.119089 0.5501482 0
3.890662 -0.4571276 0
5.12736 0.2929939 0
4.881305 -0.6981598 0
4.407938 1.572997 0
5.407842 1.270945 0
4.727899 2.58881 0
5.727903 2.255095 0
5.073275 3.598326 0
6.073205 3.24562 0
5.430439 4.600906 0
6.436048 4.240103 0
0.5005112 0.4935168 0
1.501588 0.4368309 0
2.50265 0.3231809 0
3.503944 0.1525683 0
4.502396 -0.07567216 0
4.759927 0.9217062 0
5.062948 1.921959 0
5.397602 2.921949 0
5.751282 3.922101 0
0.5146419 0.9915767 0
0 0.5 0
0.4864324 -0.008170528 0
1.001054 0.4722872 0
1.544167 0.9349169 0
1.459008 -0.06481642 0
2.002121 0.3871288 0
2.573735 0.8212582 0
3.00322 0.2449883 0
2.431594 -0.1784574 0
3.602837 0.6509101 0
3.403807 -0.3493848 0
4.003532 0.04509003 0
4.625105 0.4226254 0
4.382715 -0.5759893 0
5.002844 -0.1995415 0
4.9067 1.421922 0
4.261072 1.063166 0
5.261617 0.7815916 0
5.22711 2.421954 0
4.563946 2.081677 0
5.563928 1.762208 0
5.572843 3.42195 0
4.898196 3.094356 0
5.898196 2.749561 0
5.930866 4.422173 0
5.251453 4.100523 0
6.251381 3.743063 0
0.2536438 0.7483231 0
0.7613932 0.7341569 0
0.2468594 0.2483981 0
0.7401812 0.2342944 0
1.26905 0.7058272 0
1.233593 0.2059621 0
1.776706 0.6632493 0
1.727004 0.1633815 0
2.284361 0.6064234 0
2.792019 0.5353306 0
2.220414 0.1065575 0
2.713826 0.03550888 0
3.2997 0.4500198 0
3.8075 0.3514179 0
3.207257 -0.04982106 0
3.700575 -0.150144 0
4.311575 0.2365102 0
4.813447 0.1102942 0
4.194633 -0.2648009 0
4.692148 -0.3871492 0
4.58239 1.244869 0
5.082342 1.098987 0
4.440023 0.7391547 0
4.941783 0.6046222 0
4.894361 2.253602 0
5.394361 2.090306 0
4.734032 1.749644 0
5.233985 1.594262 0
5.23486 3.25914 0
5.734845 3.084764 0
5.061835 2.756767 0
5.561839 2.58714 0
5.590983 4.261494 0
6.091438 4.082622 0
5.411884 3.760736 0
5.91176 3.583188 0
0.5075448 0.7429883 0
0.2574133 0.9969847 0
0.7719996 0.9827506 0
0.2502437 0.498718 0
0 0.25 0
0 0.75 0
0.4934939 0.2431127 0
0.7295853 -0.01697934 0
0.2431639 -0.002825192 0
0.750784 0.4846786 0
1.015222 0.7217731 0
0.9868869 0.2219104 0
1.251322 0.4563395 0
1.522878 0.6863191 0
1.801557 0.9118472 0
1.286777 0.9544249 0
1.480299 0.1864524 0
1.702152 -0.08788746 0
1.215864 -0.04530645 0
1.751855 0.4137606 0
2.030534 0.6366179 0
1.973709 0.1367494 0
2.538189 0.5726625 0
2.31634 0.8550206 0
2.831126 0.7839246 0
2.252385 0.3569356 0
2.752922 0.2858646 0
2.960539 -0.005350678 0
3.045853 0.4944335 0
2.467119 0.07280924 0
2.188444 -0.1447107 0
2.674738 -0.2157558 0
3.553588 0.402252 0
3.345754 0.6986291 0
3.859719 0.6004096 0
3.253571 0.2005594 0
3.453945 -0.09803814 0
3.646888 -0.4014819 0
3.160872 -0.3011173 0
3.754054 0.100834 0
4.060247 0.2965898 0
3.947326 -0.2059621 0
4.562652 0.1736882 0
4.373274 0.487158 0
4.876261 0.3576527 0
4.252781 -0.01415617 0
4.442883 -0.3256081 0
4.631456 -0.6371239 0
4.135783 -0.5156239 0
4.752451 -0.1379217 0
5.064257 0.04752188 0
4.942131 -0.4483091 0
4.832028 1.171832 0
4.657045 1.497362 0
5.156952 1.346528 0
4.510093 0.9921321 0
4.190734 0.8080268 0
4.333344 1.318175 0
4.690781 0.6718337 0
5.010496 0.8516734 0
5.333333 1.026017 0
5.192979 0.5374418 0
5.144138 2.171957 0
4.977306 2.505283 0
5.477309 2.338624 0
4.813202 2.001723 0
4.484852 1.827519 0
4.645029 2.335443 0
5.313189 1.842186 0
5.484796 1.516361 0
5.645028 2.008455 0
4.983737 1.671954 0
5.484728 3.171946 0
5.322972 3.510033 0
5.822914 3.333874 0
5.14775 3.008052 0
4.812354 2.84178 0
4.985234 3.346541 0
5.647751 2.835853 0
5.812358 2.502129 0
5.985214 2.997393 0
5.311663 2.671952 0
5.841167 4.172241 0
5.680479 4.511511 0
6.182084 4.332549 0
5.501339 4.011239 0
5.162107 3.849674 0
5.340978 4.350868 0
6.001245 3.83273 0
6.161974 3.494209 0
6.341541 3.991875 0
5.661755 3.671987 0
0.3832905 0.8704922 0
0.3779665 0.6214507 0
0.1276418 0.8743341 0
0.6388954 0.863417 0
0.8945012 0.8528187 0
0.6300571 0.6143932 0
0.1243206 0.374838 0
0.3727895 0.3715013 0
0.1226189 0.1243989 0
0.1259168 0.6248214 0
0.612422 0.1136171 0
0.6212415 0.3644601 0
0.8573433 0.1030241 0
0.3675044 0.1206588 0
0.8821141 0.6037801 0
0.8697256 0.3538495 0
1.134162 0.589613 0
1.38621 0.5718856 0
1.150109 0.8386555 0
1.118214 0.3396813 0
1.102267 0.08885875 0
1.366701 0.3219527 0
1.661327 0.7996397 0
1.638257 0.5505965 0
1.916936 0.7747892 0
1.405718 0.8209286 0
1.592116 0.0498389 0
1.615187 0.3006628 0
1.837041 0.02498728 0
1.347191 0.0711294 0
1.890304 0.5257458 0
1.863672 0.2758115 0
2.428156 0.7143986 0
2.394396 0.4653574 0
2.172546 0.7463764 0
2.683767 0.6788507 0
2.93937 0.639731 0
2.646443 0.4298157 0
2.112157 0.2473991 0
2.360641 0.215427 0
2.081966 -0.00342489 0
2.14235 0.4973332 0
2.857626 0.1408123 0
2.609127 0.1798977 0
2.816738 -0.109992 0
2.898502 0.3907074 0
2.326892 -0.03539481 0
2.571818 -0.07091731 0
3.45048 0.5509524 0
3.40274 0.301897 0
3.194949 0.5970634 0
3.706005 0.5017165 0
3.961867 0.450192 0
3.654886 0.2523425 0
3.106156 0.0981606 0
3.354712 0.05189216 0
3.061632 -0.1526509 0
3.150592 0.3480473 0
3.551312 -0.2491991 0
3.603179 0.00186041 0
3.796362 -0.3032012 0
3.306479 -0.1990021 0
3.906446 0.1990428 0
3.851383 -0.05208658 0
4.467815 0.3301282 0
4.407145 0.08031607 0
4.215614 0.3930024 0
4.719086 0.2661109 0
4.970025 0.2021247 0
4.657549 0.01768931 0
4.099517 -0.1096258 0
4.348085 -0.1698438 0
4.042091 -0.3605278 0
4.156886 0.1413903 0
4.53728 -0.481396 0
4.59738 -0.2314872 0
4.786764 -0.542688 0
4.288986 -0.4202982 0
4.908066 -0.04489367 0
4.847331 -0.2932084 0
4.744164 1.333991 0
4.670703 1.082595 0
4.494814 1.408351 0
4.994108 1.25981 0
5.24471 1.185617 0
4.92076 1.011016 0
4.350137 0.900523 0
4.599741 0.8310839 0
4.280368 0.6458277 0
4.421369 1.154576 0
4.783097 0.5141635 0
4.850294 0.7624038 0
5.034188 0.4481764 0
4.531811 0.5800537 0
5.171494 0.9395584 0
5.101256 0.6938223 0
5.060466 2.338199 0
4.978368 2.087311 0
4.810885 2.420784 0
5.310467 2.255711 0
5.560888 2.17312 0
5.228366 2.006603 0
4.648683 1.915142 0
4.898155 1.836322 0
4.570616 1.661882 0
4.72884 2.168111 0
5.39865 1.678755 0
5.14814 1.757593 0
5.320533 1.432025 0
5.478834 1.925789 0
4.820026 1.585223 0
5.069985 1.508668 0
5.403712 3.340764 0
5.316065 3.090271 0
5.153945 3.428509 0
5.653693 3.25313 0
5.903907 3.165412 0
5.566062 3.003627 0
4.979832 2.925239 0
5.229511 2.83968 0
4.894616 2.67316 0
5.066338 3.177022 0
5.729836 2.668671 0
5.479513 2.754223 0
5.644621 2.420747 0
5.816333 2.916893 0
5.144246 2.588989 0
5.394249 2.504918 0
5.760875 4.341883 0
5.671174 4.0918 0
5.510724 4.431193 0
6.011398 4.252541 0
6.262221 4.162344 0
5.921234 4.002478 0
5.331641 3.930546 0
5.581502 3.841525 0
5.242458 3.679692 0
5.421176 4.181037 0
6.081484 3.663294 0
5.831423 3.752506 0
5.992351 3.414221 0
6.17124 3.912599 0
5.492259 3.591174 0
5.742206 3.502745 0
0.3805997 0.7460875 0
0.5110936 0.8673869 0
0.5040171 0.6183687 0
0.2554765 0.8727806 0
0.1288704 0.9986076 0
0.3860017 0.994686 0
0.7666979 0.8585631 0
0.6433131 0.9876051 0
0.9006922 0.9770062 0
0.6344738 0.7390148 0
0.248571 0.373651 0
0.125118 0.4998732 0
0.3753757 0.4965857 0
0.1235059 0.2497019 0
0 0.125 0
0 0.375 0
0.1267371 0.7496659 0
0 0.625 0
0 0.875 0
0.2519199 0.6236163 0
0.6168328 0.2391486 0
0.4899624 0.1175758 0
0.4970096 0.3684301 0
0.7348823 0.1087676 0
0.8511537 -0.02272231 0
0.6080143 -0.01213013 0
0.2450546 0.1229079 0
0.3648234 -0.005084105 0
0.1214499 -0.001269855 0
0.3701708 0.2461931 0
0.756088 0.6095302 0
0.8759194 0.4789269 0
0.6256478 0.489543 0
0.8883084 0.7284101 0
1.022305 0.8461828 0
1.008138 0.5971414 0
0.8635336 0.2285482 0
0.99397 0.3472103 0
0.9798049 0.09638737 0
0.7454818 0.3595994 0
1.260186 0.5811945 0
1.126188 0.4647584 0
1.376455 0.4470304 0
1.142136 0.7142454 0
1.11024 0.2143815 0
1.242457 0.3312621 0
1.649792 0.6752294 0
1.533522 0.8107293 0
1.512233 0.5616863 0
1.789131 0.7876596 0
1.930252 0.8989767 0
1.672862 0.9238273 0
1.277913 0.8302374 0
1.415472 0.9451162 0
1.158082 0.9628431 0
1.395964 0.6965184 0
1.603651 0.1753621 0
1.469654 0.06092928 0
1.490944 0.3117529 0
1.714578 0.03785823 0
1.823725 -0.1007584 0
1.58058 -0.0759068 0
1.224729 0.08043927 0
1.337436 -0.0546163 0
1.094293 -0.03688706 0
1.356946 0.1966524 0
1.76428 0.5386163 0
1.876988 0.4008899 0
1.626722 0.4257409 0
1.90362 0.6503789 0
2.044741 0.7610282 0
2.016327 0.5119847 0
1.850356 0.1505106 0
1.987914 0.2620503 0
1.959503 0.01122616 0
1.739429 0.2886823 0
2.411275 0.5899891 0
2.555962 0.6970712 0
2.520419 0.4480325 0
2.300351 0.7308334 0
2.187643 0.8705637 0
2.445037 0.8385856 0
2.81157 0.6597369 0
2.702432 0.8030378 0
2.959813 0.7639202 0
2.665104 0.554443 0
2.236399 0.2318579 0
2.127253 0.3724774 0
2.377517 0.3405035 0
2.097061 0.1220983 0
2.157448 0.6219662 0
2.268373 0.4817908 0
2.733374 0.1607997 0
2.878066 0.2658711 0
2.627784 0.3049679 0
2.837182 0.01552563 0
2.939189 -0.1308689 0
2.981886 0.1199339 0
2.918935 0.5153263 0
3.024541 0.369819 0
3.067164 0.618837 0
2.77247 0.4107071 0
2.343766 0.0901276 0
2.449356 -0.05271231 0
2.484883 0.1981068 0
2.204429 -0.01896542 0
2.066871 -0.1291704 0
2.310019 -0.1611399 0
2.69428 -0.09000992 0
2.553168 -0.1966625 0
2.7963 -0.2357396 0
2.590472 0.05460299 0
3.426636 0.426538 0
3.578233 0.5266895 0
3.528829 0.2775459 0
3.322721 0.5744259 0
3.217137 0.7212599 0
3.474325 0.675164 0
3.833864 0.4761693 0
3.73129 0.6259438 0
3.988349 0.5746629 0
3.680559 0.3772088 0
3.230434 0.07548468 0
3.128388 0.2232173 0
3.378764 0.1770133 0
3.083899 -0.0271282 0
3.172774 0.4726599 0
3.276658 0.325402 0
3.577264 -0.1236039 0
3.428889 -0.2236139 0
3.47897 0.02736033 0
3.673785 -0.2757433 0
3.768646 -0.4288962 0
3.525301 -0.3749617 0
3.184062 -0.1753547 0
3.282344 -0.3247711 0
3.039374 -0.2784068 0
3.330609 -0.07344977 0
3.780807 0.2262195 0
3.878867 0.07345559 0
3.629064 0.1271927 0
3.934166 0.3246778 0
4.089174 0.4228496 0
4.03176 0.1707388 0
3.823911 -0.1776212 0
3.975428 -0.08045419 0
[...]
POINT_DATA 2465
VECTORS displacement float
0 0 0
0 0 0
0.02938682 -0.02962966 0
-0.02727719 -0.02935867 0
0.05894727 -0.1147844 0
-0.05470264 -0.1145194 0
0.0884863 -0.256971 0
-0.08215178 -0.2566197 0
0.1190886 -0.4498518 0
-0.1093384 -0.4571276 0
0.1273604 -0.7070061 0
-0.1186947 -0.6981598 0
0.4079383 -0.4270034 0
0.4078418 -0.7290553 0
0.7278991 -0.4111904 0
0.7279028 -0.744905 0
1.073275 -0.4016741 0
1.073205 -0.7543804 0
1.430439 -0.399094 0
1.436048 -0.7598974 0
0.0005112031 -0.006483168 0
0.001588484 -0.06316914 0
0.002649871 -0.1768191 0
0.003943917 -0.3474317 0
0.002395812 -0.5756722 0
0.2599267 -0.5782938 0
0.5629482 -0.5780408 0
0.8976024 -0.5780506 0
1.251282 -0.577899 0
0.01464185 -0.008423296 0
0 0 0
-0.01356758 -0.008170528 0
0.001054053 -0.02771276 0
0.04416673 -0.06508309 0
-0.04099172 -0.06481642 0
0.002120507 -0.1128712 0
0.07373522 -0.1787418 0
0.003220252 -0.2550117 0
-0.06840614 -0.1784574 0
0.1028371 -0.3490899 0
-0.09619296 -0.3493848 0
0.003532147 -0.45491 0
0.1251049 -0.5773746 0
-0.1172852 -0.5759893 0
0.002843891 -0.6995415 0
0.4067001 -0.5780777 0
0.2610724 -0.4368339 0
0.261617 -0.7184084 0
0.7271095 -0.5780456 0
0.5639461 -0.4183228 0
0.5639284 -0.7377917 0
1.072843 -0.5780504 0
0.8981962 -0.405644 0
0.898196 -0.7504388 0
1.430866 -0.5778273 0
1.251453 -0.3994773 0
1.251381 -0.7569368 0
0.003643803 -0.001676934 0
0.01139323 -0.01584313 0
-0.003140557 -0.001601915 0
-0.009818774 -0.0157056 0
0.01904978 -0.04417282 0
-0.01640678 -0.04403789 0
0.02670581 -0.08675065 0
-0.02299623 -0.08661852 0
0.03436146 -0.1435766 0
0.04201878 -0.2146694 0
-0.02958641 -0.1434425 0
-0.03617414 -0.2144911 0
0.0497002 -0.2999802 0
0.0574996 -0.3985821 0
-0.04274288 -0.2998211 0
-0.04942537 -0.400144 0
0.06157518 -0.5134898 0
0.06344659 -0.6397058 0
-0.05536695 -0.5148009 0
-0.05785189 -0.6371492 0
0.3323895 -0.505131 0
0.3323416 -0.6510126 0
0.1900226 -0.5108453 0
0.191783 -0.6453778 0
0.6443609 -0.496398 0
0.6443611 -0.6596938 0
0.4840319 -0.500356 0
0.4839847 -0.6557383 0
0.9848595 -0.4908599 0
0.9848451 -0.6652359 0
0.8118346 -0.4932332 0
0.8118386 -0.6628604 0
1.340983 -0.4885061 0
1.341438 -0.6673776 0
1.161884 -0.4892638 0
1.16176 -0.6668125 0
0.007544787 -0.007011676 0
0.007413271 -0.003015274 0
0.02199955 -0.01724939 0
0.000243737 -0.001281995 0
0 0 0
0 0 0
-0.006506137 -0.006887326 0
-0.02041473 -0.01697934 0
-0.006836079 -0.002825192 0
0.0007839895 -0.01532143 0
0.01522225 -0.0282269 0
-0.01311307 -0.02808964 0
0.001321751 -0.04366047 0
0.02287777 -0.06368089 0
0.0515566 -0.08815279 0
0.03677688 -0.04557505 0
-0.01970137 -0.06354762 0
-0.04784755 -0.08788746 0
-0.0341355 -0.04530645 0
0.001854814 -0.0862394 0
0.03053372 -0.1133821 0
-0.02629124 -0.1132506 0
0.03818937 -0.1773375 0
0.06634004 -0.1449794 0
0.08112608 -0.2160754 0
0.002385133 -0.1430644 0
0.002921879 -0.2141354 0
-0.03946061 -0.2553507 0
0.04585291 -0.2555665 0
-0.03288137 -0.1771908 0
-0.06155559 -0.1447107 0
-0.07526188 -0.2157558 0
0.05358847 -0.347748 0
0.09575446 -0.3013709 0
0.1097195 -0.3995904 0
0.003571207 -0.2994406 0
-0.04605473 -0.3480381 0
-0.1031122 -0.4014819 0
-0.08912842 -0.3011173 0
0.004053637 -0.399166 0
0.06024709 -0.4534102 0
-0.05267379 -0.4559621 0
0.06265199 -0.5763118 0
0.123274 -0.512842 0
0.1262611 -0.6423473 0
0.002781165 -0.5141562 0
-0.05711681 -0.5756081 0
-0.1185443 -0.6371239 0
-0.1142167 -0.5156239 0
0.002451492 -0.6379217 0
0.06425742 -0.7024781 0
-0.05786934 -0.6983091 0
0.3320284 -0.5781681 0
0.4070446 -0.5026375 0
0.4069524 -0.6534716 0
0.2600929 -0.5078679 0
0.1907341 -0.4419732 0
0.3333442 -0.4318245 0
0.1907808 -0.5781663 0
0.2604957 -0.6483266 0
0.3333331 -0.723983 0
0.192979 -0.7125582 0
0.6441384 -0.5780432 0
0.7273056 -0.4947166 0
0.7273091 -0.661376 0
0.5632019 -0.4982773 0
0.4848524 -0.4224805 0
0.6450293 -0.4145573 0
0.5631888 -0.6578138 0
0.4847962 -0.7336386 0
0.6450283 -0.7415448 0
0.4837367 -0.5780455 0
0.9847282 -0.5780543 0
1.072972 -0.489967 0
1.072914 -0.6661258 0
0.8977503 -0.4919477 0
0.8123539 -0.4082204 0
0.9852335 -0.4034591 0
0.8977514 -0.6641471 0
0.8123581 -0.7478707 0
0.9852135 -0.7526068 0
0.8116635 -0.5780476 0
1.341167 -0.5777589 0
1.430479 -0.4884886 0
1.432084 -0.6674514 0
1.251339 -0.4887608 0
1.162107 -0.4003256 0
1.340978 -0.3991322 0
1.251245 -0.66727 0
1.161974 -0.7557909 0
1.341541 -0.7581251 0
1.161755 -0.5780126 0
0.008290464 -0.004507821 0
0.002966506 -0.003549337 0
0.002641834 -0.0006659091 0
0.01389544 -0.01158301 0
0.01950117 -0.02218127 0
0.005057085 -0.01060685 0
-0.0006794412 -0.0001620134 0
-0.002210503 -0.003498715 0
-0.002381132 -0.0006010691 0
0.0009167688 -0.0001785902 0
-0.01257799 -0.01138294 0
-0.003758543 -0.01053989 0
-0.01765669 -0.02197587 0
-0.007495592 -0.00434117 0
0.007114143 -0.02121994 0
-0.005274434 -0.02115049 0
0.009162236 -0.03538696 0
0.01120955 -0.05311437 0
0.02510908 -0.03634447 0
-0.006786031 -0.03531872 0
-0.0227332 -0.03614125 0
-0.008299349 -0.05304732 0
0.03632675 -0.07536033 0
0.01325679 -0.07440351 0
0.04193586 -0.1002108 0
0.03071781 -0.05407142 0
-0.03288419 -0.0751611 0
-0.009813489 -0.07433723 0
-0.03795941 -0.1000127 0
-0.02780879 -0.0538706 0
0.01530372 -0.09925425 0
-0.01132802 -0.09918854 0
0.05315624 -0.1606014 0
0.0193955 -0.1596426 0
0.04754555 -0.1286236 0
0.05876673 -0.1961493 0
0.06437023 -0.235269 0
0.02144295 -0.1951843 0
-0.01284326 -0.1276009 0
-0.01435918 -0.159573 0
-0.04303404 -0.1284249 0
0.01734995 -0.1276668 0
-0.01737424 -0.2341877 0
-0.01587296 -0.1951023 0
-0.05826236 -0.234992 0
0.02350166 -0.2342926 0
-0.04810769 -0.1603948 0
-0.05318153 -0.1959173 0
0.07548022 -0.3240476 0
0.02773991 -0.323103 0
0.06994906 -0.2779366 0
0.08100489 -0.3732835 0
0.08686711 -0.424808 0
0.0298857 -0.3726575 0
-0.0188445 -0.2768394 0
-0.02028791 -0.3231078 0
-0.06336804 -0.2776509 0
0.02559211 -0.2769527 0
-0.07368764 -0.3741991 0
-0.02182115 -0.3731396 0
-0.07863765 -0.4282012 0
-0.06852119 -0.3240021 0
0.03144638 -0.4259572 0
-0.02361682 -0.4270866 0
0.092815 -0.5448718 0
0.03214463 -0.5446839 0
0.09061405 -0.4819976 0
0.09408575 -0.6088891 0
0.09502516 -0.6728753 0
0.03254938 -0.6073107 0
-0.02548257 -0.4846258 0
-0.02691477 -0.5448438 0
-0.08290878 -0.4855278 0
0.03188639 -0.4836097 0
-0.08771966 -0.606396 0
-0.02762041 -0.6064872 0
-0.08823606 -0.667688 0
-0.08601401 -0.5452982 0
0.03306621 -0.6698937 0
-0.02766933 -0.6682084 0
0.3691643 -0.5410088 0
0.2957033 -0.5424047 0
0.3698143 -0.4666494 0
0.3691085 -0.6151905 0
0.36971 -0.6893834 0
0.2957598 -0.6139842 0
0.225137 -0.474477 0
0.2247412 -0.5439161 0
0.155368 -0.4791723 0
0.2963689 -0.4704241 0
0.1580974 -0.6108365 0
0.2252944 -0.6125962 0
0.1591883 -0.6768236 0
0.1568114 -0.5449463 0
0.2964939 -0.6854416 0
0.2262564 -0.6811777 0
0.6854656 -0.5368005 0
0.6033683 -0.5376888 0
0.6858854 -0.4542155 0
0.6854671 -0.6192893 0
0.6858882 -0.7018798 0
0.6033658 -0.6183969 0
0.523683 -0.4598585 0
0.5231554 -0.5386777 0
0.4456159 -0.4631184 0
0.6038398 -0.4568886 0
0.5236501 -0.6962449 0
0.5231397 -0.6174074 0
0.4455326 -0.6929755 0
0.603834 -0.6992107 0
0.4450262 -0.5397769 0
0.4449849 -0.6163317 0
1.028712 -0.5342358 0
0.9410646 -0.5347294 0
1.028945 -0.4464909 0
1.028693 -0.6218696 0
1.028907 -0.7095882 0
0.9410623 -0.6213732 0
0.8548321 -0.4497614 0
0.8545114 -0.5353201 0
0.7696161 -0.4518402 0
0.9413384 -0.4479781 0
0.8548358 -0.7063293 0
0.8545134 -0.6207767 0
0.7696207 -0.704253 0
0.9413329 -0.7081075 0
0.7692462 -0.5360107 0
0.7692485 -0.6200824 0
1.385875 -0.5331172 0
1.296174 -0.5332005 0
1.385724 -0.4438066 0
1.386398 -0.6224595 0
1.387221 -0.7126556 0
1.296234 -0.6225221 0
1.206641 -0.4444537 0
1.206502 -0.533475 0
1.117458 -0.4453079 0
1.296176 -0.4439625 0
1.206484 -0.7117059 0
1.206423 -0.6224945 0
1.117351 -0.7107794 0
1.29624 -0.7124015 0
1.117259 -0.5338255 0
1.117206 -0.6222547 0
0.00559967 -0.003912463 0
0.01109365 -0.007613125 0
0.004017077 -0.006631257 0
0.005476461 -0.002219412 0
0.003870449 -0.001392385 0
0.01100169 -0.005313978 0
0.01669793 -0.01643694 0
0.01831309 -0.01239492 0
0.02569219 -0.02299377 0
0.00947385 -0.01098522 0
-0.001428991 -0.001348967 0
0.0001179558 -0.0001267837 0
0.0003757079 -0.003414273 0
-0.00149405 -0.0002980939 0
0 0 0
0 0 0
0.001737087 -0.0003340624 0
0 0 0
0 0 0
0.001919872 -0.001383719 0
-0.008167163 -0.01085137 0
-0.01003765 -0.007424244 0
-0.002990447 -0.006569932 0
-0.01511767 -0.01623238 0
-0.0238463 -0.02272231 0
-0.01698569 -0.01213013 0
-0.004945366 -0.002092074 0
-0.01017658 -0.005084105 0
-0.003550108 -0.001269855 0
-0.004829223 -0.003806855 0
0.00608798 -0.01546977 0
0.0009194145 -0.0210731 0
0.000647762 -0.01045703 0
0.01330839 -0.02158987 0
0.02230496 -0.0288172 0
0.008138463 -0.02785864 0
-0.01146644 -0.02145179 0
-0.006030041 -0.02778969 0
-0.02019514 -0.02861263 0
-0.004518211 -0.01540063 0
0.0101859 -0.04380546 0
0.001188096 -0.03524163 0
0.00145518 -0.0529696 0
0.01713595 -0.03575456 0
-0.01475978 -0.0356185 0
-0.007542518 -0.04373788 0
0.0247918 -0.07477058 0
0.03352227 -0.06427067 0
0.01223319 -0.06331373 0
0.03913126 -0.08734036 0
0.05525176 -0.1010233 0
0.04786163 -0.07617274 0
0.0279134 -0.04476264 0
0.04047183 -0.05488383 0
0.03308186 -0.03715689 0
0.02096375 -0.05348162 0
-0.02134879 -0.07463791 0
-0.0303465 -0.06407072 0
-0.009056368 -0.0632471 0
-0.03542184 -0.08714177 0
-0.05127527 -0.1007584 0
-0.04441967 -0.0759068 0
-0.02527105 -0.04456073 0
-0.0375637 -0.0546163 0
-0.03070682 -0.03688706 0
-0.01805401 -0.05334762 0
0.01428032 -0.08638368 0
0.001987774 -0.0991101 0
0.001721699 -0.07425908 0
0.02861979 -0.09962113 0
0.0447406 -0.1139718 0
0.01632695 -0.1130153 0
-0.02464371 -0.09948945 0
-0.01208553 -0.1129497 0
-0.04049683 -0.1137738 0
-0.0105707 -0.08631772 0
0.03627535 -0.1600109 0
0.05596174 -0.1779288 0
0.02041862 -0.1769675 0
0.05035078 -0.1441666 0
0.06264331 -0.1294363 0
0.07003747 -0.1614144 0
0.06157015 -0.2152631 0
0.07743218 -0.1969622 0
0.08481289 -0.2360798 0
0.04010375 -0.195557 0
-0.0136012 -0.1431421 0
0.002252953 -0.1275226 0
0.002517253 -0.1594965 0
-0.02793881 -0.1279017 0
0.03244761 -0.1280338 0
0.01837275 -0.1432092 0
-0.01662622 -0.2142003 0
0.003066041 -0.2341289 0
0.002784107 -0.1950321 0
-0.0378184 -0.2344744 0
-0.06081051 -0.2558689 0
-0.01811431 -0.2550661 0
0.04393494 -0.2346737 0
0.02454119 -0.255181 0
0.06716431 -0.256163 0
0.02246991 -0.2142929 0
-0.03123399 -0.1598724 0
-0.05064436 -0.1777123 0
-0.01511675 -0.1768932 0
-0.04557099 -0.1439654 0
-0.05812947 -0.1291704 0
-0.06498101 -0.1611399 0
-0.05572026 -0.2150099 0
-0.07183223 -0.1966625 0
-0.07869955 -0.2357396 0
-0.03452825 -0.195397 0
0.05163612 -0.323462 0
0.07823261 -0.3483105 0
0.02882887 -0.3474541 0
0.07272131 -0.3005741 0
0.09213733 -0.2787401 0
0.09932477 -0.324836 0
0.08386385 -0.3988307 0
0.1062902 -0.3740562 0
0.1133491 -0.4253371 0
0.05555925 -0.3727912 0
-0.01956613 -0.2995153 0
0.003388162 -0.2767827 0
0.003763708 -0.3229867 0
-0.04110121 -0.2771282 0
0.04777391 -0.2773401 0
0.026658 -0.299598 0
-0.04773636 -0.3736039 0
-0.07111084 -0.3486139 0
-0.02102981 -0.3476397 0
-0.07621464 -0.4007433 0
-0.1063541 -0.4288962 0
-0.09969884 -0.3749617 0
-0.0659381 -0.3003547 0
-0.09265647 -0.3247711 0
-0.08562618 -0.2784068 0
-0.04439144 -0.3234498 0
0.03080745 -0.3987805 0
0.003867468 -0.4265444 0
0.004063646 -0.3728073 0
0.05916585 -0.4253222 0
0.08917422 -0.4521504 0
0.03176014 -0.4542612 0
-0.05108872 -0.4276212 0
-0.02457166 -0.4554542 0
-0.08089138 -0.4564967 0
-0.02268538 -0.399627 0
0.06215822 -0.544734 0
0.09352622 -0.5768245 0
0.03233556 -0.5759172 0
0.09186886 -0.5131764 0
0.1217482 -0.4810091 0
0.1243217 -0.5450042 0
0.09456364 -0.6409442 0
0.1257266 -0.6098539 0
0.1267791 -0.6747617 0
0.06306942 -0.60802 0
-0.02628082 -0.514472 0
0.003137173 -0.4841606 0
0.002528293 -0.5447256 0
-0.05411917 -0.4850635 0
0.06094297 -0.4829055 0
0.03199174 -0.5138295 0
-0.05760086 -0.6063643 0
-0.08704017 -0.5757557 0
-0.02736057 -0.5755739 0
-0.08809446 -0.6370776 0
-0.1186846 -0.6676788 0
-0.1181156 -0.6065272 0
-0.08463059 -0.5151735 0
-0.1159911 -0.5456412 0
-0.1119826 -0.486076 0
-0.05637337 -0.5450337 0
0.03278852 -0.6386872 0
0.002613629 -0.6688847 0
0.002374648 -0.6067976 0
0.06382654 -0.6712343 0
0.0955404 -0.7045715 0
0.03339962 -0.7007896 0
-0.05791639 -0.6678316 0
-0.02753827 -0.6987314 0
-0.08824487 -0.6981698 0
-0.02771305 -0.6374157 0
0.3321282 -0.5416848 0
0.3690571 -0.5781142 0
0.2956399 -0.578235 0
0.3694198 -0.5038566 0
0.4074232 -0.4648518 0
0.4068018 -0.5403743 0
0.3693254 -0.6522671 0
0.4067479 -0.6157679 0
0.4073174 -0.6912215 0
0.3320993 -0.6145986 0
0.2247814 -0.509343 0
0.2605026 -0.4724053 0
0.2598983 -0.5431611 0
0.1901444 -0.4767091 0
0.1557422 -0.4448207 0
0.2257197 -0.4393789 0
0.3327977 -0.4685074 0
0.2969275 -0.4343133 0
0.3703463 -0.4293828 0
0.2959527 -0.5064654 0
0.1912751 -0.6117651 0
0.1574997 -0.5778523 0
0.2249464 -0.5782955 0
0.1586415 -0.6438477 0
0.1560376 -0.5121253 0
0.1903233 -0.5445642 0
0.2960479 -0.6497019 0
0.2609824 -0.6833422 0
0.2601392 -0.613327 0
0.3327527 -0.6874572 0
0.3702614 -0.726584 0
0.2971034 -0.7212526 0
0.1923308 -0.6789859 0
0.226906 -0.7154891 0
0.1598143 -0.7096993 0
0.2257318 -0.646882 0
0.644194 -0.5372323 0
0.6854138 -0.5780445 0
0.6033083 -0.5780418 0
0.6856227 -0.4955326 0
0.7275527 -0.4529907 0
0.727158 -0.5363933 0
0.6856252 -0.6605596 0
0.72716 -0.6196983 0
0.7275567 -0.7031034 0
0.6441942 -0.6188555 0
0.5233557 -0.4992916 0
0.5635125 -0.4583366 0
0.5630137 -0.5381703 0
0.4843762 -0.461453 0
0.4461123 -0.4246994 0
0.5241381 -0.4203536 0
0.6446393 -0.4555148 0
0.6042516 -0.4163903 0
0.6862535 -0.4128241 0
0.6035455 -0.4973129 0
0.5233285 -0.6568003 0
0.5634963 -0.6977651 0
0.5630062 -0.6179138 0
0.4843201 -0.694649 0
0.446032 -0.7314039 0
0.5241039 -0.7357663 0
0.6446392 -0.7005822 0
0.6042445 -0.7397174 0
0.6862558 -0.743274 0
0.603541 -0.6587784 0
0.4838182 -0.5392125 0
0.4449344 -0.5780563 0
0.5230827 -0.5780414 0
0.4452544 -0.5014711 0
0.4451831 -0.6546285 0
0.4837909 -0.6168792 0
0.9847634 -0.534471 0
1.028674 -0.5780544 0
0.9410294 -0.5780526 0
1.028802 -0.4903894 0
1.073101 -0.4458603 0
1.072885 -0.5340217 0
1.02877 -0.6657058 0
1.072851 -0.6220774 0
1.073032 -0.7102189 0
0.9847552 -0.6216343 0
0.8546313 -0.4925657 0
0.8979359 -0.4488329 0
0.8976392 -0.5350123 0
0.8120507 -0.4507638 0
0.7699408 -0.409656 0
0.8551137 -0.4068832 0
0.9850161 -0.4471973 0
0.9415773 -0.4045025 0
1.029141 -0.4025153 0
0.9411676 -0.4913792 0
0.8546346 -0.6635285 0
0.8979368 -0.7072557 0
0.8976399 -0.6210872 0
0.8120553 -0.7053284 0
0.7699452 -0.7464374 0
0.8551168 -0.7492047 0
0.9849981 -0.7088848 0
0.9415701 -0.7515727 0
1.0291 -0.7535419 0
0.9411635 -0.6647163 0
0.8117056 -0.5356529 0
0.769201 -0.5780466 0
0.8544722 -0.5780489 0
0.7693845 -0.4939502 0
0.7693885 -0.662143 0
0.8117079 -0.6204418 0
1.34105 -0.5331281 0
1.38608 -0.5777595 0
1.296206 -0.5778189 0
1.385765 -0.4884768 0
1.430441 -0.4438035 0
1.430603 -0.5331535 0
1.386818 -0.6673271 0
1.431325 -0.622562 0
1.43342 -0.7127475 0
1.341315 -0.6224691 0
1.206564 -0.488985 0
1.251387 -0.4441617 0
1.251306 -0.5333227 0
1.161983 -0.4448374 0
1.117607 -0.4009415 0
1.206737 -0.3998355 0
1.340965 -0.4438499 0
1.296214 -0.3992483 0
1.385721 -0.399096 0
1.296161 -0.4885993 0
1.206426 -0.667074 0
1.251277 -0.7120823 0
1.251258 -0.6225385 0
1.161841 -0.7112733 0
1.117504 -0.7551272 0
1.206602 -0.7563859 0
1.341468 -0.7126304 0
1.296332 -0.7574874 0
1.387351 -0.759035 0
1.296235 -0.6673795 0
1.161807 -0.5336439 0
1.117211 -0.5780384 0
1.206453 -0.577967 0
1.117342 -0.4895918 0
1.117251 -0.6664952 0
1.161735 -0.6223963 0
0.008130146 -0.005627025 0
0.005742881 -0.002945757 0
0.01125669 -0.006333443 0
0.005028539 -0.00513672 0
0.001965431 -0.004876897 0
0.003522021 -0.002489184 0
0.004829876 -0.001712002 0
0.003345483 -0.001083768 0
0.001536909 -0.0003401401 0
0.008042601 -0.003642821 0
0.01772667 -0.0142778 0
0.01286558 -0.01357395 0
0.01448617 -0.009867482 0
0.02097282 -0.01957631 0
0.02422134 -0.02576626 0
0.01522553 -0.01887397 0
0.006522839 -0.008669943 0
0.008003475 -0.01308745 0
0.002557714 -0.008403808 0
0.01050206 -0.009161671 0
-0.0004323491 -0.0005895241 0
-0.001669781 -0.0007109724 0
-0.0001348733 7.626662e-05 0
-0.0007524471 -0.0022425 0
-0.00107791 -0.004848778 0
-0.002894016 -0.002422665 0
-0.0009211795 -6.4787e-05 0
-0.002964325 -0.001008688 0
-0.001398025 -0.000299702 0
-0.0005220649 3.581544e-05 0
0.0006391846 2.370277e-05 0
0.002035532 -0.0007508337 0
0.0002506565 7.237567e-05 0
0.001042685 -8.698913e-05 0
0.001371671 -0.002263776 0
0.0007927961 -0.0006021193 0
-0.009322657 -0.008998824 0
-0.01142099 -0.01340419 0
-0.01329244 -0.009639546 0
-0.005355873 -0.00857267 0
-0.001397858 -0.008371525 0
-0.006566402 -0.01298505 0
-0.01925896 -0.01933797 0
-0.01351527 -0.0187021 0
-0.02224388 -0.02552792 0
-0.01627421 -0.01404211 0
-0.00736099 -0.003461717 0
-0.005094511 -0.002826217 0
-0.01031926 -0.006121975 0
-0.004409667 -0.001583412 0
-0.004131877 -0.005050697 0
-0.007215811 -0.005479414 0
0.003726524 -0.01813196 0
0.009476346 -0.01839177 0
0.004306633 -0.02432711 0
0.003144237 -0.01282419 0
0.01758437 -0.02506473 0
0.01094604 -0.02458484 0
-0.008971211 -0.0244812 0
-0.007769958 -0.01828787 0
-0.002332845 -0.02429243 0
-0.015608 -0.02489314 0
-0.001711704 -0.01278998 0
-0.002022577 -0.01809718 0
0.005464543 -0.03938456 0
0.01388351 -0.03964085 0
0.004885786 -0.03141097 0
0.006043128 -0.04824837 0
0.006621627 -0.05800259 0
0.01535226 -0.04850445 0
0.01994313 -0.03214664 0
0.02230208 -0.04011948 0
0.0274707 -0.03284784 0
0.01241483 -0.0316677 0
-0.01017228 -0.03156497 0
-0.01137376 -0.03953911 0
-0.002643479 -0.03137663 0
-0.01770034 -0.03197624 0
-0.0252281 -0.03261061 0
-0.01979269 -0.03995041 0
-0.003266194 -0.04821471 0
-0.01257563 -0.04840355 0
-0.003577979 -0.05796918 0
-0.00295464 -0.03935058 0
0.02937965 -0.06938149 0
0.03173891 -0.08091634 0
0.04046934 -0.07008258 0
0.0182899 -0.06890305 0
0.007200063 -0.06864724 0
0.01975869 -0.08043797 0
0.04696887 -0.09404266 0
0.03409818 -0.09334158 0
0.05021887 -0.1073584 0
0.04371906 -0.08161742 0
0.03396998 -0.04968409 0
0.02466119 -0.04898299 0
0.03721966 -0.05943812 0
0.03072031 -0.04082059 0
0.01682108 -0.05825853 0
0.0270204 -0.05873702 0
-0.0260702 -0.06921523 0
-0.02816275 -0.08075073 0
-0.03716052 -0.06984966 0
-0.01497998 -0.06880335 0
-0.003889891 -0.06861402 0
-0.01618228 -0.08033874 0
-0.04312601 -0.09381099 0
-0.03025529 -0.09317653 0
-0.04610854 -0.107127 0
-0.04014331 -0.08138518 0
-0.03119476 -0.0494494 0
-0.02188514 -0.04881508 0
-0.03417767 -0.0592044 0
-0.02821164 -0.04058469 0
-0.01377774 -0.0581583 0
-0.02397765 -0.05857002 0
0.008356671 -0.09260773 0
0.02122742 -0.09286328 0
0.008934736 -0.1059236 0
0.007778425 -0.08018229 0
0.03645749 -0.1066573 0
0.02269605 -0.106179 0
-0.01858713 -0.1060805 0
-0.01738466 -0.09276447 0
-0.004826321 -0.1058908 0
-0.0323478 -0.1064926 0
-0.004201896 -0.08014924 0
-0.004514019 -0.09257483 0
0.04589554 -0.1688303 0
0.04353588 -0.1519496 0
0.06322264 -0.1695322 0
0.02856945 -0.1683504 0
0.01124496 -0.1680923 0
0.02710111 -0.1514706 0
0.05671991 -0.1366622 0
0.04117631 -0.1359609 0
0.05346918 -0.1215648 0
0.05997112 -0.1526511 0
0.06972372 -0.2059733 0
0.05061458 -0.2052708 0
0.06647392 -0.1873061 0
0.07296976 -0.2255331 0
0.07620835 -0.2459831 0
0.05297321 -0.2248305 0
0.03003828 -0.1861224 0
0.03150833 -0.204787 0
0.01182336 -0.1858616 0
0.0482552 -0.1866039 0
-0.005451697 -0.1351934 0
-0.0209925 -0.1353828 0
-0.00513887 -0.120097 0
-0.005764708 -0.1511799 0
-0.006077559 -0.1680564 0
-0.02219536 -0.1513685 0
-0.03444024 -0.1206988 0
-0.0365326 -0.1357947 0
-0.04909075 -0.1213331 0
-0.01978974 -0.1202867 0
0.02416453 -0.1203853 0
0.02563287 -0.1354824 0
0.009512554 -0.1201298 0
0.03881686 -0.1208636 0
0.01066746 -0.151214 0
0.0100901 -0.1352266 0
-0.00700379 -0.2240237 0
-0.02699872 -0.2241985 0
-0.007300792 -0.2444589 0
-0.006698974 -0.2044783 0
-0.006389464 -0.1858226 0
-0.0258009 -0.2046583 0
-0.04908797 -0.2450302 0
-0.04699403 -0.2246018 0
-0.06998105 -0.245664 0