# vtk DataFile Version 2.0
FEM results (displaced points, displacements, cell stress)
ASCII
DATASET UNSTRUCTURED_GRID
POINTS 2579 float
0 0 0
0.02677159 0.1574489 0
0.05591579 0.3140605 0
0.08885333 0.4696782 0
0.1261386 0.6241327 0
0.1679688 0.7772642 0
0.2143901 0.9289243 0
0.2653827 1.078974 0
0.320897 1.227282 0
0.3808684 1.37372 0
0.4452245 1.518167 0
0.513888 1.660504 0
0.5867783 1.800614 0
0.6638115 1.938383 0
0.7449014 2.073699 0
0.8299588 2.206454 0
0.9188918 2.33654 0
1.011606 2.463852 0
1.108002 2.588287 0
1.20798 2.709748 0
1.311436 2.828136 0
1.418261 2.943358 0
1.528347 3.055325 0
1.641578 3.163952 0
1.757839 3.269155 0
1.877011 3.370858 0
1.998971 3.468988 0
2.123595 3.563477 0
2.250757 3.654262 0
2.380328 3.741286 0
2.512178 3.824497 0
2.646177 3.903849 0
2.78219 3.979301 0
2.920088 4.050821 0
3.059736 4.118381 0
3.201005 4.181959 0
3.343765 4.241541 0
3.487889 4.297117 0
3.633254 4.348686 0
3.779743 4.396248 0
3.927241 4.439811 0
4.075643 4.479384 0
4.224847 4.514981 0
4.374761 4.546617 0
4.525299 4.574307 0
4.676383 4.598065 0
4.827939 4.617906 0
4.979899 4.633838 0
5.132199 4.645869 0
5.284777 4.654 0
5.437571 4.658231 0
5.590517 4.658554 0
5.743551 4.654959 0
5.8966 4.647429 0
6.04959 4.635948 0
6.202438 4.620494 0
6.355055 4.601045 0
6.507347 4.577579 0
6.65921 4.550074 0
6.810537 4.518509 0
6.961214 4.482868 0
7.111121 4.443135 0
7.260135 4.3993 0
7.408128 4.351358 0
7.554969 4.299307 0
7.700527 4.243152 0
7.844665 4.182904 0
7.987249 4.118577 0
8.128143 4.050195 0
8.26721 3.977785 0
8.404315 3.90138 0
8.539323 3.82102 0
8.672101 3.73675 0
8.802518 3.64862 0
8.930443 3.556686 0
9.055749 3.461009 0
9.178312 3.361654 0
9.298008 3.25869 0
9.414718 3.152192 0
9.528325 3.042237 0
9.638713 2.928907 0
9.745773 2.812286 0
9.849394 2.692463 0
9.949471 2.569528 0
10.0459 2.443575 0
10.13858 2.314699 0
10.22741 2.182999 0
10.3123 2.048577 0
10.39315 1.911535 0
10.46987 1.771982 0
10.54237 1.630027 0
10.61056 1.485785 0
10.67436 1.339375 0
10.7337 1.190921 0
10.78851 1.040554 0
10.83878 0.8884046 0
10.88456 0.7346021 0
10.92608 0.5792515 0
10.96398 0.4223794 0
11 0.2638224 0
2.010434 -0.2405142 0
2.023245 -0.1454547 0
2.039369 -0.05073553 0
2.058725 0.04357156 0
2.081202 0.1373751 0
2.106705 0.2305807 0
2.135159 0.3230946 0
2.166505 0.4148239 0
2.200694 0.5056768 0
2.237679 0.5955624 0
2.277416 0.6843917 0
2.31986 0.7720768 0
2.364967 0.8585323 0
2.41269 0.9436745 0
2.462979 1.027422 0
2.515786 1.109697 0
2.571058 1.190423 0
2.62874 1.269527 0
2.688778 1.346938 0
2.751113 1.422589 0
2.815688 1.496416 0
2.882442 1.568357 0
2.951314 1.638353 0
3.022242 1.70635 0
3.095162 1.772294 0
3.170011 1.836136 0
3.246726 1.89783 0
3.325241 1.957331 0
3.405492 2.014598 0
3.487413 2.069593 0
3.570939 2.122279 0
3.656004 2.172623 0
3.742542 2.220593 0
3.830486 2.266161 0
3.919769 2.3093 0
4.010323 2.349985 0
4.102079 2.388194 0
4.194967 2.423908 0
4.288916 2.457108 0
4.383855 2.48778 0
4.479709 2.515909 0
4.576404 2.541485 0
4.673865 2.564497 0
4.772013 2.584939 0
4.87077 2.602803 0
4.970057 2.618084 0
5.069792 2.63078 0
5.169895 2.640887 0
5.270281 2.648402 0
5.370871 2.653325 0
5.471579 2.655653 0
5.572324 2.655387 0
5.673023 2.652525 0
5.773594 2.647068 0
5.873955 2.639016 0
5.974025 2.628368 0
6.073725 2.615127 0
6.172974 2.599295 0
6.271694 2.580874 0
6.369807 2.55987 0
6.467237 2.536287 0
6.563905 2.510132 0
6.659738 2.481416 0
6.75466 2.450148 0
6.848596 2.41634 0
6.941474 2.380009 0
7.033219 2.341171 0
7.123758 2.299845 0
7.213021 2.256052 0
7.300936 2.209819 0
7.387431 2.16117 0
7.472437 2.110135 0
7.555884 2.056746 0
7.637704 2.001038 0
7.717827 1.943047 0
7.796186 1.882813 0
7.872715 1.820379 0
7.947347 1.755789 0
8.020017 1.689093 0
8.09066 1.620341 0
8.159212 1.549588 0
8.225612 1.47689 0
8.289798 1.402307 0
8.351709 1.325904 0
8.411288 1.247747 0
8.468477 1.167905 0
8.523222 1.086451 0
8.575469 1.003462 0
8.625165 0.9190161 0
8.672263 0.833195 0
8.716712 0.7460829 0
8.758465 0.6577662 0
8.797475 0.5683332 0
8.833691 0.4778726 0
8.867058 0.3864733 0
8.897511 0.2942224 0
8.924967 0.2012037 0
8.949322 0.1074957 0
8.970459 0.01316771 0
8.988366 -0.08172617 0
1.019595 -0.04411518 0
1.039578 0.0821055 0
1.06384 0.2076817 0
1.092117 0.3324375 0
1.124286 0.4562337 0
1.160273 0.5789472 0
1.20002 0.7004625 0
1.243469 0.8206694 0
1.290563 0.9394611 0
1.341243 1.056734 0
1.395445 1.172388 0
1.453108 1.286323 0
1.514165 1.398445 0
1.578547 1.508659 0
1.646187 1.616874 0
1.717012 1.723002 0
1.790948 1.826956 0
1.867922 1.928652 0
1.947854 2.028009 0
2.030666 2.124948 0
2.116277 2.219395 0
2.204604 2.311276 0
2.29556 2.400521 0
2.389061 2.487064 0
2.485016 2.570842 0
2.583336 2.651795 0
2.68393 2.729866 0
2.786703 2.805002 0
2.891563 2.877154 0
2.998414 2.946278 0
3.10716 3.01233 0
3.217705 3.075275 0
3.329952 3.135078 0
3.443804 3.191709 0
3.559164 3.245145 0
3.675935 3.295362 0
3.794022 3.342345 0
3.913328 3.386078 0
4.03376 3.426551 0
4.155224 3.463757 0
4.277628 3.497691 0
4.400882 3.528351 0
4.524897 3.555737 0
4.649587 3.57985 0
4.774864 3.60069 0
4.900647 3.618261 0
5.026852 3.632564 0
5.153398 3.643601 0
5.280205 3.651371 0
5.407194 3.655874 0
5.534285 3.657109 0
5.661399 3.655071 0
5.788457 3.649757 0
5.915376 3.64116 0
6.042076 3.629275 0
6.168472 3.614094 0
6.294479 3.59561 0
6.420009 3.573817 0
6.544973 3.548708 0
6.669279 3.52028 0
6.792834 3.488528 0
6.915543 3.453453 0
7.037307 3.415057 0
7.158029 3.373344 0
7.277609 3.328322 0
7.395946 3.280003 0
7.512938 3.228403 0
7.628485 3.17354 0
7.742484 3.115438 0
7.854833 3.054124 0
7.965431 2.98963 0
8.074177 2.921992 0
8.180972 2.851249 0
8.285716 2.777446 0
8.388313 2.700629 0
8.488665 2.62085 0
8.586677 2.538164 0
8.682257 2.452631 0
8.775313 2.364312 0
8.865754 2.273273 0
8.953492 2.179582 0
9.038442 2.083311 0
9.120518 1.984536 0
9.199639 1.883334 0
9.275724 1.779786 0
9.348694 1.673975 0
9.418473 1.565989 0
9.484985 1.455915 0
9.548157 1.343847 0
9.60792 1.229878 0
9.664202 1.114106 0
9.716938 0.99663 0
9.766062 0.8775534 0
9.811511 0.7569816 0
9.853224 0.6350234 0
9.891139 0.5117923 0
9.925183 0.3874079 0
9.955247 0.2620029 0
9.981114 0.1357406 0
0.5114039 -0.02379821 0
1.008733 -0.1232315 0
1.026126 0.003368313 0
1.515075 -0.1427853 0
0.5340137 0.1190034 0
1.047734 0.1293962 0
1.531633 -0.03228132 0
0.560418 0.2604762 0
1.07351 0.2547014 0
1.551938 0.0779253 0
0.590912 0.4007979 0
1.103251 0.3791293 0
1.575827 0.1875587 0
0.6255995 0.5399553 0
1.136857 0.5025496 0
1.603196 0.2964599 0
0.6644965 0.6778656 0
1.174259 0.6248428 0
1.633972 0.40451 0
0.7075775 0.8144218 0
1.215401 0.7458958 0
1.668096 0.5116041 0
0.7547961 0.9495103 0
1.260225 0.8655996 0
1.705515 0.6176419 0
0.806095 1.083017 0
1.308672 0.9838488 0
1.746177 0.7225253 0
0.8614106 1.214829 0
1.360683 1.100541 0
1.790032 0.8261576 0
0.9206751 1.344837 0
1.416195 1.215575 0
1.837025 0.9284441 0
0.9838177 1.472932 0
1.475144 1.328855 0
1.887104 1.029292 0
1.050765 1.599008 0
1.537462 1.440285 0
1.940212 1.12861 0
1.121442 1.722962 0
1.603081 1.549773 0
1.996291 1.226309 0
1.19577 1.844694 0
1.671932 1.657227 0
2.055282 1.322304 0
1.27367 1.964103 0
1.743942 1.76256 0
2.117123 1.416511 0
1.355059 2.081092 0
1.819036 1.865688 0
2.18175 1.50885 0
1.439852 2.195568 0
1.897139 1.966526 0
2.249099 1.599241 0
1.52796 2.307438 0
1.978172 2.064994 0
2.319103 1.687611 0
1.619295 2.416613 0
2.062056 2.161016 0
2.391693 1.773886 0
1.713764 2.523005 0
2.148708 2.254517 0
2.466798 1.857998 0
1.81127 2.626533 0
2.238044 2.345425 0
2.544348 1.939879 0
1.911716 2.727116 0
2.329979 2.433673 0
2.624269 2.019468 0
2.015002 2.824677 0
2.424424 2.519194 0
2.706487 2.096704 0
2.121025 2.919144 0
2.52129 2.601926 0
2.790926 2.171529 0
2.22968 3.010447 0
2.620487 2.681812 0
2.877511 2.24389 0
2.340861 3.098524 0
2.721922 2.758796 0
2.966164 2.313737 0
2.454459 3.183313 0
2.825502 2.832827 0
3.056806 2.381021 0
2.570364 3.264758 0
2.931133 2.903856 0
3.14936 2.445698 0
2.688466 3.342811 0
3.038719 2.971841 0
3.243747 2.507726 0
2.808651 3.417423 0
3.148163 3.03674 0
3.339886 2.567068 0
2.930808 3.488555 0
3.259371 3.098518 0
3.437699 2.623688 0
3.054822 3.556169 0
3.372243 3.157143 0
3.537104 2.677554 0
3.18058 3.620236 0
3.486684 3.212588 0
3.638022 2.728637 0
3.307969 3.680729 0
3.602598 3.264827 0
3.74037 2.776912 0
3.436876 3.737628 0
3.719886 3.313841 0
3.844068 2.822354 0
3.567191 3.790916 0
3.838454 3.359614 0
3.949033 2.864943 0
3.698803 3.840582 0
3.958206 3.402133 0
4.055184 2.904663 0
3.831605 3.88662 0
4.079049 3.441389 0
4.162437 2.941499 0
3.965494 3.929027 0
4.20089 3.477375 0
4.27071 2.975438 0
4.100368 3.967805 0
4.323637 3.510088 0
4.37992 3.006471 0
4.23613 4.002956 0
4.4472 3.539526 0
4.489982 3.034591 0
4.372686 4.034487 0
4.571492 3.565689 0
4.600814 3.059791 0
4.509948 4.062406 0
4.696425 3.588579 0
4.712332 3.082067 0
4.64783 4.08672 0
4.821916 3.608198 0
4.824452 3.101417 0
4.786252 4.107438 0
4.94788 3.624546 0
4.937091 3.117838 0
4.925136 4.124567 0
5.074236 3.637627 0
5.050165 3.131329 0
5.064405 4.138112 0
5.200903 3.64744 0
5.163592 3.141889 0
5.203989 4.148075 0
5.327801 3.653986 0
5.277287 3.149515 0
5.343813 4.154459 0
5.454851 3.657265 0
5.39117 3.154208 0
5.483807 4.15726 0
5.581973 3.657272 0
5.505156 3.155966 0
5.623897 4.156472 0
5.709089 3.654005 0
5.619163 3.154786 0
5.764009 4.152089 0
5.836116 3.647458 0
5.73311 3.150667 0
5.904065 4.144099 0
5.962976 3.637626 0
5.846913 3.143605 0
6.043985 4.13249 0
6.089583 3.624502 0
5.96049 3.133599 0
6.183685 4.117247 0
6.215855 3.608079 0
6.073759 3.120645 0
6.323075 4.098356 0
6.341705 3.58835 0
6.186636 3.104741 0
6.462064 4.075801 0
6.467045 3.565308 0
6.299037 3.085887 0
6.600556 4.04957 0
6.591785 3.538949 0
6.41088 3.064081 0
6.738448 4.019648 0
6.715832 3.509268 0
6.522079 3.039324 0
6.875637 3.986026 0
6.839092 3.476263 0
6.63255 3.011618 0
7.012016 3.948695 0
6.961469 3.439935 0
6.742208 2.980968 0
7.147472 3.907651 0
7.082866 3.400287 0
6.850966 2.947378 0
7.281893 3.862893 0
7.203183 3.357325 0
6.958739 2.910858 0
[...]
POINT_DATA 2579
VECTORS displacement float
0 0 0
0.02425431 -0.001190736 0
0.04584917 -0.00305908 0
0.06621294 -0.005601996 0
0.08591269 -0.008829578 0
0.1051632 -0.01274281 0
0.1240336 -0.01733188 0
0.1425317 -0.02257847 0
0.1606405 -0.02845822 0
0.1783333 -0.03494251 0
0.1955801 -0.04199984 0
0.2123511 -0.04959677 0
0.2286179 -0.05769864 0
0.2443538 -0.06627011 0
0.2595341 -0.07527542 0
0.2741361 -0.08467871 0
0.2881387 -0.094444 0
0.3015226 -0.1045353 0
0.3142696 -0.1149166 0
0.3263629 -0.1255517 0
0.3377869 -0.1364041 0
0.3485268 -0.1474368 0
0.358569 -0.1586126 0
0.3679005 -0.1698933 0
0.3765096 -0.1812399 0
0.3843854 -0.1926125 0
0.3915181 -0.2039702 0
0.3978989 -0.2152705 0
0.4035205 -0.2264698 0
0.4083767 -0.2375229 0
0.412463 -0.2483827 0
0.4157768 -0.2590005 0
0.4183177 -0.2693257 0
0.4200876 -0.2793057 0
0.4210915 -0.288886 0
0.421338 -0.2980099 0
0.4208397 -0.3066191 0
0.4196144 -0.314654 0
0.4176855 -0.3220535 0
0.4150827 -0.3287561 0
0.4118431 -0.3347007 0
0.4080116 -0.339827 0
0.4036415 -0.3440768 0
0.3987944 -0.3473953 0
0.3935403 -0.349732 0
0.3879571 -0.3510418 0
0.3821296 -0.3512866 0
0.3761484 -0.350436 0
0.3701083 -0.3484681 0
0.3641065 -0.3453702 0
0.3582408 -0.3411394 0
0.3526077 -0.3357823 0
0.3473009 -0.3293151 0
0.3424091 -0.321763 0
0.3380157 -0.3131592 0
0.3341969 -0.3035449 0
0.3310219 -0.2929672 0
0.328552 -0.2814788 0
0.3268411 -0.2691369 0
0.3259355 -0.2560018 0
0.3258743 -0.2421361 0
0.3266901 -0.2276042 0
0.3284093 -0.2124711 0
0.3310528 -0.196802 0
0.3346363 -0.1806617 0
0.3391713 -0.1641145 0
0.3446653 -0.1472233 0
0.3511221 -0.1300497 0
0.3585427 -0.1126541 0
0.3669255 -0.09509493 0
0.3762665 -0.07742926 0
0.3865597 -0.05971238 0
0.3977975 -0.04199805 0
0.4099706 -0.02433852 0
0.4230684 -0.006784681 0
0.4370792 0.01061384 0
0.4519898 0.0278085 0
0.467786 0.04475169 0
0.4844528 0.0613966 0
0.5019735 0.07769703 0
0.5203306 0.09360727 0
0.5395052 0.109082 0
0.5594769 0.124076 0
0.5802241 0.1385443 0
0.601723 0.152442 0
0.6239481 0.1657243 0
0.6468718 0.1783465 0
0.6704638 0.1902645 0
0.6946913 0.2014347 0
0.7195189 0.2118147 0
0.7449087 0.221364 0
0.7708208 0.2300447 0
0.7972155 0.2378219 0
0.8240566 0.2446649 0
0.8513195 0.2505467 0
0.8790093 0.2554423 0
0.9072024 0.2593219 0
0.9361451 0.2621319 0
0.9664934 0.2637397 0
1 0.2638224 0
0.01043428 -0.2405142 0
0.02173487 -0.2406385 0
0.03332924 -0.2410073 0
0.04514105 -0.2415966 0
0.05706646 -0.2424023 0
0.06902126 -0.2434234 0
0.08094491 -0.2446591 0
0.09279483 -0.2461077 0
0.1045403 -0.2477672 0
0.116158 -0.2496352 0
0.1276292 -0.2517087 0
0.1389382 -0.2539836 0
0.150071 -0.2564551 0
0.161015 -0.2591171 0
0.171759 -0.2619624 0
0.1822925 -0.2649823 0
0.1926058 -0.2681671 0
0.2026903 -0.2715053 0
0.2125383 -0.2749844 0
0.222143 -0.2785903 0
0.2314989 -0.2823078 0
0.2406013 -0.2861202 0
0.2494472 -0.2900097 0
0.2580349 -0.2939574 0
0.266364 -0.2979433 0
0.2744361 -0.3019466 0
0.2822543 -0.3059456 0
0.2898233 -0.3099181 0
0.2971497 -0.3138416 0
0.3042419 -0.3176929 0
0.3111095 -0.3214491 0
0.317764 -0.3250868 0
0.3242182 -0.3285831 0
0.3304859 -0.3319152 0
0.3365822 -0.3350604 0
0.3425227 -0.3379965 0
0.3483237 -0.3407018 0
0.3540021 -0.343155 0
0.3595747 -0.3453353 0
0.3650584 -0.3472226 0
0.37047 -0.3487975 0
0.3758257 -0.3500416 0
0.3811416 -0.3509374 0
0.3864331 -0.3514687 0
0.3917149 -0.3516206 0
0.3970016 -0.3513799 0
0.4023069 -0.3507353 0
0.4076444 -0.3496777 0
0.4130272 -0.3481999 0
0.4184685 -0.3462977 0
0.4239811 -0.343969 0
0.4295783 -0.3412149 0
0.4352731 -0.3380389 0
0.4410793 -0.3344472 0
0.4470105 -0.3304488 0
0.4530809 -0.3260552 0
0.459305 -0.3212802 0
0.4656973 -0.3161399 0
0.4722728 -0.3106522 0
0.4790463 -0.3048371 0
0.4860327 -0.2987158 0
0.4932468 -0.2923111 0
0.5007029 -0.285647 0
0.508415 -0.2787483 0
0.5163966 -0.2716409 0
0.5246605 -0.264351 0
0.5332186 -0.2569055 0
0.5420821 -0.2493318 0
0.5512612 -0.2416572 0
0.5607652 -0.2339093 0
0.5706022 -0.2261159 0
0.5807793 -0.2183046 0
0.5913022 -0.2105027 0
0.6021754 -0.2027375 0
0.613402 -0.1950359 0
0.624984 -0.1874242 0
0.6369216 -0.1799284 0
0.6492136 -0.1725734 0
0.6618574 -0.1653836 0
0.6748489 -0.1583823 0
0.6881825 -0.1515917 0
0.7018514 -0.1450327 0
0.7158474 -0.1387248 0
0.730161 -0.132686 0
0.7447816 -0.1269328 0
0.7596977 -0.1214798 0
0.7748967 -0.1163402 0
0.7903648 -0.1115252 0
0.8060876 -0.1070443 0
0.8220493 -0.1029054 0
0.8382328 -0.09911481 0
0.8546189 -0.09567772 0
0.8711853 -0.09259843 0
0.8879047 -0.08988114 0
0.9047414 -0.08753092 0
0.9216465 -0.08555499 0
0.9385512 -0.08396439 0
0.955362 -0.08277604 0
0.971969 -0.08201609 0
0.9883659 -0.08172617 0
0.01833648 -0.123435 0
0.0337892 -0.1240462 0
0.04949964 -0.1250943 0
0.06521159 -0.1266277 0
0.08081528 -0.1286585 0
0.09625348 -0.131183 0
0.1114875 -0.1341907 0
0.1264856 -0.1376664 0
0.1412187 -0.1415923 0
0.1556598 -0.1459483 0
0.1697837 -0.1507129 0
0.1835668 -0.1558632 0
0.1969877 -0.1613753 0
0.2100265 -0.1672243 0
0.2226654 -0.1733846 0
0.2348884 -0.1798298 0
0.246681 -0.186533 0
0.2580305 -0.1934665 0
0.2689257 -0.2006022 0
0.2793567 -0.2079113 0
0.2893153 -0.2153644 0
0.2987944 -0.2229317 0
0.3077883 -0.2305828 0
0.3162927 -0.2382866 0
0.3243045 -0.2460116 0
0.3318223 -0.2537256 0
0.3388457 -0.2613957 0
0.3453762 -0.2689885 0
0.3514164 -0.2764699 0
0.3569708 -0.283805 0
0.3620456 -0.2909583 0
0.3666487 -0.2978937 0
0.37079 -0.3045741 0
0.3744814 -0.3109621 0
0.3777368 -0.3170197 0
0.3805725 -0.3227082 0
0.3830069 -0.3279891 0
0.3850613 -0.3328236 0
0.3867592 -0.3371732 0
0.3881268 -0.3410001 0
0.3891933 -0.3442677 0
0.3899904 -0.3469407 0
0.3905525 -0.3489861 0
0.390917 -0.3503732 0
0.3911236 -0.3510748 0
0.3912145 -0.3510671 0
0.3912337 -0.3503304 0
0.3912274 -0.3488499 0
0.3912427 -0.3466155 0
0.3913278 -0.3436223 0
0.3915313 -0.3398707 0
0.3919016 -0.3353667 0
0.3924862 -0.3301213 0
0.3933318 -0.3241508 0
0.3944831 -0.3174765 0
0.3959829 -0.3101238 0
0.3978713 -0.3021225 0
0.4001859 -0.293506 0
0.4029612 -0.2843107 0
0.4062288 -0.2745759 0
0.4100168 -0.2643427 0
0.4143504 -0.2536541 0
0.4192518 -0.2425545 0
0.42474 -0.2310886 0
0.4308313 -0.2193021 0
0.4375392 -0.2072404 0
0.4448748 -0.1949491 0
0.4528466 -0.1824731 0
0.4614612 -0.169857 0
0.470723 -0.1571445 0
0.4806344 -0.1443786 0
0.4911962 -0.1316014 0
0.5024073 -0.1188542 0
0.514265 -0.1061773 0
0.5267654 -0.09361012 0
0.5399026 -0.08119113 0
0.5536696 -0.06895805 0
0.5680578 -0.05694773 0
0.5830574 -0.04519625 0
0.5986569 -0.03373884 0
0.6148435 -0.02261 0
0.6316031 -0.0118434 0
0.6489199 -0.00147189 0
0.6667767 0.008472515 0
0.6851546 0.0179587 0
0.7040331 0.02695649 0
0.72339 0.0354367 0
0.7432012 0.04337121 0
0.7634406 0.05073304 0
0.7840805 0.05749642 0
0.8050911 0.06363695 0
0.8264405 0.06913171 0
0.8480955 0.07395951 0
0.8700209 0.07810121 0
0.8921789 0.08154021 0
0.9145269 0.08426351 0
0.9370083 0.08626408 0
0.9595261 0.08754716 0
0.9818688 0.0881487 0
0.01077457 -0.06345813 0
0.008732958 -0.1232315 0
0.02411169 -0.1235434 0
0.01444593 -0.1824452 0
0.02986081 -0.06339229 0
0.0396805 -0.1242995 0
0.02798404 -0.1829491 0
0.04821463 -0.06447155 0
0.05539739 -0.1255228 0
0.04174818 -0.1835986 0
0.06613926 -0.06637477 0
0.07107029 -0.1272405 0
0.05558202 -0.1845579 0
0.08375121 -0.06897188 0
0.08661229 -0.129456 0
0.0693925 -0.1858749 0
0.1010837 -0.07220301 0
0.1019742 -0.1321622 0
0.08312004 -0.1875572 0
0.118133 -0.07603292 0
0.1171202 -0.1353464 0
0.09672265 -0.1895993 0
0.1348788 -0.08043391 0
0.1320196 -0.1389923 0
0.1101678 -0.1919918 0
0.1512945 -0.0853797 0
0.1466443 -0.1430814 0
0.1234281 -0.1947234 0
0.1673517 -0.09084343 0
0.1609679 -0.147593 0
0.1364798 -0.1977825 0
0.183022 -0.09679718 0
0.1749658 -0.1525051 0
0.1493012 -0.2011563 0
0.1982786 -0.103212 0
0.1886153 -0.1577945 0
0.1618724 -0.2048317 0
0.2130966 -0.1100582 0
0.2018955 -0.1634368 0
0.1741754 -0.2087941 0
0.2274527 -0.1173054 0
0.2147874 -0.1694069 0
0.1861933 -0.2130282 0
0.241326 -0.1249228 0
0.2272737 -0.175679 0
0.1979108 -0.2175174 0
0.2546972 -0.1328794 0
0.239339 -0.1822265 0
0.2093141 -0.2222441 0
0.2675487 -0.1411438 0
0.2509695 -0.189022 0
0.2203905 -0.2271895 0
0.2798645 -0.1496845 0
0.262153 -0.1960378 0
0.2311287 -0.2323338 0
0.2916301 -0.1584695 0
0.2728786 -0.2032453 0
0.241519 -0.2376558 0
0.3028321 -0.1674669 0
0.2831371 -0.2106155 0
0.2515527 -0.2431336 0
0.3134583 -0.1766441 0
0.2929204 -0.2181188 0
0.2612226 -0.2487439 0
0.3234979 -0.185968 0
0.3022219 -0.225725 0
0.270523 -0.2544628 0
0.332941 -0.1954052 0
0.3110363 -0.2334033 0
0.2794496 -0.2602651 0
0.3417788 -0.2049212 0
0.3193598 -0.2411224 0
0.2879996 -0.2661252 0
0.3500039 -0.214481 0
0.3271896 -0.2488504 0
0.2961717 -0.2720163 0
0.3576099 -0.2240484 0
0.3345246 -0.2565547 0
0.3039664 -0.277911 0
0.3645921 -0.2335864 0
0.3413652 -0.2642022 0
0.3113857 -0.2837814 0
0.3709468 -0.2430567 0
0.3477131 -0.2717592 0
0.3184337 -0.2895989 0
0.3766723 -0.2524199 0
0.3535718 -0.2791913 0
0.3251158 -0.2953342 0
0.3817682 -0.2616353 0
0.3589464 -0.2864633 0
0.3314397 -0.3009579 0
0.3862361 -0.2706611 0
0.3638437 -0.2935395 0
0.3374144 -0.3064402 0
0.3900797 -0.2794542 0
0.3682724 -0.3003835 0
0.3430508 -0.3117508 0
0.3933046 -0.2879701 0
0.3722432 -0.3069582 0
0.3483615 -0.3168597 0
0.3959188 -0.2961632 0
0.3757688 -0.3132259 0
0.3533605 -0.3217364 0
0.3979332 -0.3039865 0
0.378864 -0.3191484 0
0.3580632 -0.3263507 0
0.3993615 -0.3113921 0
0.3815461 -0.3246871 0
0.3624866 -0.3306725 0
0.4002208 -0.3183312 0
0.3838344 -0.3298034 0
0.3666485 -0.3346717 0
0.4005321 -0.3247542 0
0.3857512 -0.3344587 0
0.3705683 -0.3383189 0
0.4003204 -0.3306113 0
0.3873211 -0.3386147 0
0.3742663 -0.3415849 0
0.3996152 -0.335853 0
0.3885712 -0.3422342 0
0.3777637 -0.3444416 0
0.3984512 -0.3404301 0
0.3895318 -0.3452808 0
0.3810829 -0.3468615 0
0.3968681 -0.3442954 0
0.3902357 -0.3477203 0
0.384247 -0.3488186 0
0.3949108 -0.3474033 0
0.3907183 -0.3495203 0
0.3872801 -0.3502883 0
0.3926298 -0.3497116 0
0.3910178 -0.3506517 0
0.3902072 -0.351248 0
0.3900806 -0.3511815 0
0.391175 -0.3510882 0
0.3930541 -0.3516772 0
0.3873232 -0.3517793 0
0.3912326 -0.3508078 0
0.3958471 -0.3515582 0
0.3844222 -0.3514764 0
0.3912356 -0.3497926 0
0.3986136 -0.350876 0
0.3814452 -0.3502505 0
0.3912305 -0.3480293 0
0.4013815 -0.3496189 0
0.3784624 -0.348086 0
0.3912649 -0.34551 0
0.4041792 -0.3477787 0
0.3755451 -0.3449747 0
0.3913871 -0.3422318 0
0.4070355 -0.345351 0
0.3727652 -0.3409154 0
0.3916457 -0.3381972 0
0.4099798 -0.3423349 0
0.3701934 -0.3359149 0
0.3920887 -0.333414 0
0.4130414 -0.3387338 0
0.3678988 -0.329987 0
0.3927636 -0.3278954 0
0.4162495 -0.3345546 0
0.3659474 -0.3231528 0
0.3937162 -0.3216594 0
0.4196333 -0.3298083 0
0.3644016 -0.3154397 0
0.3949905 -0.3147289 0
0.4232214 -0.3245094 0
0.3633196 -0.3068814 0
0.3966286 -0.307131 0
0.4270419 -0.3186758 0
0.3627548 -0.2975167 0
0.3986696 -0.2988968 0
0.4311219 -0.3123285 0
0.3627556 -0.2873888 0
0.40115 -0.2900608 0
0.4354874 -0.3054916 0
0.3633653 -0.276545 0
0.4041033 -0.2806604 0
0.4401634 -0.2981914 0
0.364622 -0.2650352 0
0.4075599 -0.2707357 0
0.4451735 -0.2904568 0
0.3665588 -0.2529118 0
0.4115469 -0.2603284 0
0.4505397 -0.2823182 0
0.369204 -0.2402286 0
0.4160885 -0.249482 0
0.4562825 -0.2738079 0
0.3725815 -0.2270406 0
0.4212056 -0.2382408 0
0.4624208 -0.2649592 0
0.3767109 -0.213403 0
0.4269163 -0.2266501 0
0.4689719 -0.2558064 0
0.3816081 -0.1993711 0
0.433236 -0.2147554 0
0.4759514 -0.2463846 0
0.3872852 -0.185 0
0.4401772 -0.202602 0
0.4833731 -0.2367293 0
0.3937515 -0.1703439 0
0.4477502 -0.1902354 0
0.4912495 -0.2268763 0
0.4010134 -0.1554562 0
0.4559627 -0.1777003 0
0.4995913 -0.2168614 0
0.4090747 -0.1403892 0
0.4648205 -0.165041 0
0.5084076 -0.2067204 0
0.417937 -0.1251943 0
0.4743272 -0.1523011 0
0.5177063 -0.1964892 0
0.4276001 -0.1099214 0
0.4844846 -0.1395232 0
0.5274937 -0.1862032 0
0.438062 -0.09461962 0
0.4952926 -0.1267491 0
0.5377745 -0.1758978 0
0.4493188 -0.07933664 0
0.5067497 -0.1140199 0
0.5485522 -0.1656077 0
0.4613656 -0.06411916 0
0.5188524 -0.1013755 0
0.5598289 -0.1553676 0
0.4741956 -0.04901285 0
0.5315961 -0.08885525 0
0.571605 -0.1452115 0
0.4878009 -0.03406242 0
0.5449743 -0.07649737 0
0.5838795 -0.135173 0
0.5021721 -0.01931166 0
0.5589794 -0.06433937 0
0.5966499 -0.1252847 0
0.5172985 -0.004803524 0
0.5736022 -0.05241789 0
0.6099119 -0.1155788 0
0.5331678 0.009419839 0
0.588832 -0.0407688 0
0.6236598 -0.1060863 0
0.5497665 0.02331702 0
0.6046569 -0.02942713 0
0.6378863 -0.09683731 0
0.5670794 0.03684733 0
0.6210634 -0.01842714 0
0.6525823 -0.08786058 0
0.5850898 0.04997072 0
0.6380368 -0.007802223 0
0.6677372 -0.07918374 0
0.6037795 0.0626478 0
0.6555606 0.002415046 0
0.6833392 -0.07083303 0
0.6231285 0.07483979 0
0.6736171 0.01219299 0
0.6993747 -0.06283326 0
0.6431152 0.08650852 0
0.6921866 0.02150087 0
0.7158288 -0.05520782 0
0.6637159 0.09761649 0
0.7112481 0.03030891 0
0.7326853 -0.04797866 0
0.684905 0.1081269 0
0.7307787 0.03858837 0
0.7499267 -0.04116625 0
0.7066548 0.1180038 0
0.7507535 0.04631159 0
0.767534 -0.03478966 0
0.7289353 0.1272124 0
0.771146 0.05345209 0
0.7854868 -0.02886663 0
0.7517142 0.1357189 0
0.7919274 0.05998468 0
0.8037632 -0.0234137 0
0.7749575 0.1434912 0
0.8130674 0.06588553 0
0.8223397 -0.01844644 0
0.7986299 0.1504987 0
0.8345336 0.07113242 0
0.8411905 -0.0139798 0
0.8226965 0.156712 0
0.8562919 0.07570493 0
0.8602868 -0.01002839 0
0.8471262 0.1621006 0
0.8783062 0.07958484 0
0.8795952 -0.006606693 0
0.871899 0.1666275 0
0.9005371 0.08275672 0
0.8990745 -0.003727814 0
0.8970212 0.1702327 0
0.9229372 0.08520928 0
0.9186697 -0.001398122 0
0.9225595 0.1727898 0
0.9454368 0.08693837 0
0.9383007 0.0004011375 0
0.9487173 0.1739928 0
0.9679021 0.0879557 0
0.9578419 0.001769321 0
0.976684 0.1720683 0
0.9899493 0.08833121 0
0.9768997 0.003190456 0
0.02063182 -0.06364357 0
0.01495407 -0.03448635 0
0.01387471 -0.1826028 0
0.011323 -0.06201827 0
0.02001314 -0.1825592 0
0.01817173 -0.2114005 0
0.03955927 -0.06385433 0
0.03664352 -0.03397348 0
0.02743844 -0.1828506 0
0.02843152 -0.06397039 0
0.03353989 -0.1832431 0
0.03056531 -0.2115831 0
0.05778132 -0.06522038 0
0.05657964 -0.03516892 0
0.04094267 -0.183767 0
0.04726868 -0.0643917 0
0.04728141 -0.184068 0
0.04324172 -0.2120504 0
0.07557711 -0.06741107 0
0.0756452 -0.03743923 0
0.05464525 -0.1848216 0
0.06539838 -0.06598208 0
0.06107825 -0.1852 0
0.05607137 -0.2128637 0
0.09305294 -0.07029161 0
0.09419326 -0.04053126 0
0.06838465 -0.186181 0
0.08309438 -0.06839947 0
0.07483709 -0.1866864 0
0.06894482 -0.2140156 0
0.110238 -0.07379953 0
0.1123544 -0.04433483 0
0.08206755 -0.1878911 0
0.1004605 -0.07150385 0
0.08849897 -0.1885342 0
0.08178365 -0.2154844 0
0.127127 -0.07789799 0
0.1301648 -0.0487928 0
0.09563553 -0.189957 0
0.117525 -0.07523019 0
0.1020227 -0.1907368 0
0.09453347 -0.2172497 0
0.1436997 -0.08255816 0
0.1476206 -0.05386698 0
0.1090483 -0.1923709 0
0.1342824 -0.07954015 0
0.1153765 -0.1932837 0
0.1071556 -0.2192955 0
0.15993 -0.0877529 0
0.1647011 -0.0595251 0
0.122275 -0.1951208 0
0.150713 -0.08440393 0
0.1285341 -0.1961631 0
0.1196212 -0.2216099 0
0.17579 -0.09345463 0
0.1813796 -0.06573613 0
0.1352905 -0.1981939 0
0.1667909 -0.08979367 0
0.1414725 -0.1993625 0
0.1319071 -0.2241829 0
0.1912524 -0.0996348 0
0.1976277 -0.07246865 0
0.1480728 -0.2015767 0
0.1824891 -0.09568122 0
0.1541708 -0.2028686 0
0.1439939 -0.2270061 0
0.2062911 -0.106264 0
0.2134177 -0.07969051 0
0.1606022 -0.2052552 0
0.197781 -0.1020376 0
0.1666101 -0.2066677 0
0.1558643 -0.2300711 0
0.2208819 -0.1133119 0
0.2287235 -0.08736889 0
0.1728611 -0.209215 0
0.2126411 -0.1088328 0
0.1787731 -0.2107449 0
0.1675027 -0.2333695 0
0.2350027 -0.1207477 0
0.2435208 -0.09547041 0
0.1848332 -0.2134406 0
0.2270461 -0.1160363 0
0.1906439 -0.2150844 0
0.1788946 -0.2368919 0
0.2486331 -0.1285403 0
0.2577875 -0.1039613 0
0.1965037 -0.2179158 0
0.2409743 -0.1236171 0
0.2022079 -0.2196693 0
0.1900266 -0.2406284 0
0.2617544 -0.1366581 0
0.2715032 -0.1128077 0
0.2078592 -0.2226233 0
0.2544061 -0.1315434 0
0.213452 -0.2244817 0
0.200886 -0.2445676 0
0.2743498 -0.1450692 0
0.2846495 -0.1219754 0
0.2188875 -0.2275448 0
0.2673235 -0.1397836 0
0.2243643 -0.2295026 0
0.211461 -0.2486973 0
0.2864038 -0.1537417 0
0.2972095 -0.13143 0
0.2295778 -0.232661 0
0.27971 -0.1483054 0
0.2349342 -0.2347118 0
0.2217409 -0.2530035 0
0.2979024 -0.1626431 0
0.3091679 -0.1411369 0
0.2399206 -0.2379516 0
0.2915508 -0.1570765 0
0.2451525 -0.240088 0
0.2317156 -0.2574711 0
0.3088326 -0.1717407 0
0.3205107 -0.1510613 0
0.2499075 -0.2433951 0
0.3028322 -0.1660641 0
0.2550113 -0.2456091 0
0.2413764 -0.2620833 0
0.3191828 -0.1810015 0
0.3312253 -0.1611681 0
0.2595315 -0.2489691 0
0.3135418 -0.175235 0
0.2645041 -0.2512517 0
0.2507159 -0.2668216 0
0.3289426 -0.1903917 0
0.3412999 -0.1714214 0
0.2687869 -0.2546502 0
0.3236684 -0.1845559 0
0.2736255 -0.2569917 0
0.2597281 -0.2716663 0
0.3381024 -0.199877 0
0.3507242 -0.1817851 0
0.2776694 -0.2604139 0
0.333202 -0.1939925 0
0.282372 -0.2628038 0
0.2684086 -0.2765955 0
0.3466542 -0.2094226 0
0.3594889 -0.1922219 0
0.286176 -0.2662352 0
0.3421335 -0.20351 0
0.2907413 -0.2686622 0
0.2767551 -0.2815862 0
0.354591 -0.2189924 0
0.3675857 -0.2026942 0
0.2943054 -0.2720877 0
0.3504553 -0.213073 0
0.2987327 -0.27454 0
0.2847672 -0.2866137 0
0.3619071 -0.2285496 0
0.3750077 -0.2131631 0
0.3020576 -0.2779447 0
0.3581609 -0.2226451 0
0.3063473 -0.2804098 0
0.2924468 -0.2916519 0
0.3685984 -0.2380565 0
0.3817489 -0.2235888 0
0.3094344 -0.2837784 0
0.3652451 -0.2321888 0
0.3135878 -0.2862435 0
0.299798 -0.2966738 0
0.3746622 -0.2474741 0
0.3878048 -0.23393 0
0.3164391 -0.2895606 0
0.3717044 -0.2416658 0
0.3204587 -0.2920122 0
0.3068273 -0.3016513 0
0.3800974 -0.2567622 0
0.3931722 -0.2441447 0
0.3230771 -0.2952622 0
0.3775367 -0.2510365 0
0.3269661 -0.2976868 0
0.3135433 -0.3065556 0
0.3849048 -0.2658796 0
0.3978493 -0.2541891 0
0.3293553 -0.3008537 0
0.3827416 -0.2602601 0
0.3331182 -0.3032375 0
0.3199568 -0.3113578 0
0.3890871 -0.2747835 0
0.4018362 -0.2640182 0
0.3352823 -0.3063052 0
0.3873206 -0.2692948 0
0.3389247 -0.3086343 0
0.3260804 -0.3160285 0
0.3926488 -0.2834304 0
0.4051348 -0.2735853 0
0.3408689 -0.3115864 0
0.3912772 -0.2780974 0
0.3443972 -0.313847 0
0.3319288 -0.3205387 0
0.395597 -0.291775 0
0.407749 -0.2828425 0
0.3461273 -0.3166668 0
0.394617 -0.2866235 0
0.3495487 -0.3188452 0
0.3375179 -0.3248595 0
0.3979412 -0.2997712 0
0.4096855 -0.29174 0
0.3510715 -0.3215158 0
0.3973477 -0.2948276 0
0.3543942 -0.3235985 0
0.3428652 -0.3289627 0
0.3996935 -0.3073717 0
0.4109535 -0.3002268 0
0.3557172 -0.3261028 0
0.3994801 -0.3026629 0
0.3589497 -0.3280765 0
0.3479889 -0.3328203 0
0.4008692 -0.3145281 0
0.4115658 -0.3082504 0
0.3600814 -0.3303974 0
0.4010273 -0.3100817 0
0.3632328 -0.3322491 0
0.3529086 -0.3364055 0
0.4014872 -0.3211915 0
0.4115388 -0.3157573 0
0.3641828 -0.3343694 0
0.402006 -0.3170355 0
0.3672623 -0.3360865 0
0.3576441 -0.3396917 0
0.4015702 -0.3273124 0
0.4108935 -0.322693 0
0.3680412 -0.3379893 0
0.4024364 -0.3234751 0
0.3710584 -0.3395592 0
0.3622159 -0.3426536 0
0.401145 -0.3328414 0
0.4096555 -0.3290028 0
0.3716779 -0.3412278 0
0.4023425 -0.3293512 0
0.3746422 -0.3426386 0
0.366645 -0.3452665 0
0.4002433 -0.3377297 0
0.4078561 -0.334632 0
0.3751151 -0.3440568 0
0.4017529 -0.3346147 0
0.3780359 -0.3452968 0
0.3709523 -0.3475067 0
0.3989016 -0.3419293 0
0.4055325 -0.3395267 0
0.3783763 -0.3464492 0
0.4007006 -0.3392174 0
0.3812626 -0.3475071 0
0.375159 -0.3493518 0
0.3971617 -0.3453944 0
0.4027281 -0.3436349 0
0.3814859 -0.348379 0
0.3992238 -0.3431124 0
0.3843466 -0.3492442 0
0.3792862 -0.3507806 0
0.3950706 -0.3480815 0
0.3994932 -0.3469069 0
0.384469 -0.349822 0
0.397366 -0.346255 0
0.3873126 -0.3504846 0
0.3833548 -0.3517733 0
0.3926804 -0.3499508 0
0.3958846 -0.3492965 0
0.3873518 -0.3507558 0
0.3951756 -0.3486035 0
0.3901866 -0.3512065 0
0.3873858 -0.352312 0
0.3900484 -0.3509666 0
0.3919655 -0.3507619 0
0.3901612 -0.3511605 0
0.3927064 -0.3501201 0
0.3929949 -0.3513909 0
0.3913998 -0.3523806 0
0.3872362 -0.3510981 0
0.3878052 -0.3512669 0