# vtk DataFile Version 2.0
FEM results (displaced points, displacements, cell stress)
ASCII
DATASET UNSTRUCTURED_GRID
POINTS 2465 float
0 0 0
0 1 0
1.040927 0.9587345 0
0.9620108 -0.04088813 0
2.082096 0.8401386 0
1.923815 -0.1594924 0
3.123236 0.6421137 0
2.885586 -0.357397 0
4.165856 0.3734865 0
3.847723 -0.6366466 0
5.177376 0.01534493 0
4.834693 -0.9723348 0
4.56814 1.405308 0
5.568006 0.9846369 0
5.013753 2.427331 0
6.013758 1.962563 0
5.494761 3.440584 0
6.494664 2.949366 0
5.992188 4.444177 0
7 3.941683 0
0.500712 0.4909708 0
1.502212 0.4120237 0
2.503691 0.2537421 0
3.505493 0.01612817 0
4.503337 -0.3017448 0
4.862003 0.694604 0
5.284024 1.694956 0
5.750101 2.694943 0
6.242674 3.695154 0
0.5203919 0.9882688 0
0 0.5 0
0.4811043 -0.01137918 0
1.001468 0.4614041 0
1.561511 0.9093581 0
1.44291 -0.09027053 0
2.002953 0.3428031 0
2.602692 0.7510643 0
3.004485 0.1448425 0
2.40473 -0.2485395 0
3.643222 0.5138187 0
3.366031 -0.4865919 0
4.004919 -0.133558 0
4.674235 0.1958842 0
4.336656 -0.8021865 0
5.003961 -0.4742589 0
5.066416 1.194905 0
4.363598 0.8916167 0
5.364357 0.4994649 0
5.512653 2.19495 0
4.785414 1.917397 0
5.785389 1.47247 0
5.99416 3.194943 0
5.250927 2.935055 0
6.250927 2.454856 0
6.492782 4.195254 0
5.742913 3.943644 0
6.742812 3.445806 0
0.2550748 0.7476645 0
0.7658675 0.7279351 0
0.2456261 0.247769 0
0.7363253 0.2281266 0
1.276531 0.68848 0
1.22715 0.188668 0
1.787193 0.6291814 0
1.717973 0.1293654 0
2.297856 0.5500394 0
2.80852 0.4510277 0
2.208795 0.05022606 0
2.69962 -0.04872409 0
3.319218 0.3322144 0
3.83008 0.1948904 0
3.190472 -0.167564 0
3.681165 -0.3072849 0
4.335756 0.03485728 0
4.838363 -0.1409252 0
4.17289 -0.4669688 0
4.669429 -0.6373646 0
4.712922 1.046499 0
5.212856 0.8433278 0
4.514647 0.5385403 0
5.017098 0.3511753 0
5.147408 2.058661 0
5.647409 1.831237 0
4.924116 1.553149 0
5.424051 1.336746 0
5.621624 3.066374 0
6.121604 2.823519 0
5.380651 2.563069 0
5.880656 2.326827 0
6.117602 4.069652 0
6.618235 3.820536 0
5.868169 3.568597 0
6.367996 3.321323 0
0.5105077 0.7402348 0
0.2603245 0.9958006 0
0.780639 0.9759766 0
0.2503395 0.4982146 0
0 0.25 0
0 0.75 0
0.4909388 0.2404079 0
0.7215682 -0.0236473 0
0.2404793 -0.003934675 0
0.7510919 0.4786617 0
1.0212 0.7106881 0
0.9817373 0.2108793 0
1.251841 0.4391936 0
1.531862 0.6613109 0
1.821803 0.8772287 0
1.30122 0.9365271 0
1.472562 0.1614966 0
1.683362 -0.1224018 0
1.202459 -0.06309879 0
1.752583 0.3798935 0
2.042525 0.5920915 0
1.963384 0.09227469 0
2.553187 0.5030201 0
2.342392 0.7980856 0
2.862985 0.6990694 0
2.253322 0.3007527 0
2.754069 0.2017713 0
2.945043 -0.1056296 0
3.06386 0.3940698 0
2.454206 0.003224519 0
2.164271 -0.2015402 0
2.645182 -0.3004855 0
3.574633 0.2656877 0
3.383358 0.5802774 0
3.902808 0.4434862 0
3.254974 0.08296578 0
3.435859 -0.2347165 0
3.606394 -0.5591482 0
3.12587 -0.4193694 0
3.755646 -0.05592286 0
4.083907 0.1185307 0
3.926641 -0.3850234 0
4.587256 -0.05263566 0
4.421685 0.2857594 0
4.925845 0.105396 0
4.253873 -0.2160708 0
4.420453 -0.5516556 0
4.584902 -0.8873294 0
4.090929 -0.718115 0
4.753414 -0.3884405 0
5.089492 -0.2283489 0
4.919405 -0.7225426 0
4.96242 0.944779 0
4.816895 1.299971 0
5.316767 1.089903 0
4.612234 0.7926869 0
4.265637 0.6344592 0
4.464252 1.148593 0
4.765702 0.4447815 0
5.112795 0.5970685 0
5.464237 0.741701 0
5.268764 0.2576125 0
5.397099 1.944953 0
5.262926 2.311003 0
5.762931 2.078894 0
5.034377 1.806044 0
4.675259 1.661607 0
4.898339 2.172642 0
5.534359 1.583856 0
5.675181 1.228254 0
5.898338 1.717243 0
5.173705 1.44495 0
5.871442 2.944938 0
5.744339 3.317618 0
6.244259 3.072279 0
5.500307 2.814859 0
5.131374 2.681467 0
5.372145 3.188098 0
6.000308 2.575035 0
6.13138 2.208432 0
6.372118 2.701836 0
5.630413 2.444947 0
6.367858 3.945349 0
6.242243 4.319677 0
6.74448 4.070433 0
5.992753 3.819298 0
5.618479 3.692462 0
5.867595 4.194124 0
6.492622 3.570686 0
6.618294 3.197402 0
6.868378 3.694151 0
6.117989 3.444996 0
0.3865462 0.8687219 0
0.3791315 0.6200568 0
0.1286793 0.8740726 0
0.6443523 0.8588682 0
0.9021595 0.8441079 0
0.6320431 0.6102277 0
0.1240537 0.3747744 0
0.3719214 0.3701273 0
0.1216838 0.1241629 0
0.1262768 0.6247513 0
0.6074825 0.1091469 0
0.6197654 0.360321 0
0.8504093 0.09439397 0
0.3645608 0.118954 0
0.8849079 0.5954468 0
0.8676542 0.3455435 0
1.13776 0.5757162 0
1.390612 0.551027 0
1.15997 0.8243827 0
1.115549 0.3258112 0
1.093339 0.07466569 0
1.363441 0.3011204 0
1.675593 0.7700449 0
1.643463 0.5213774 0
1.933405 0.7354353 0
1.417781 0.7996941 0
1.579202 0.02032233 0
1.611333 0.2714697 0
1.822134 -0.01428879 0
1.33627 0.04997383 0
1.896314 0.4867675 0
1.859223 0.236859 0
2.449031 0.6513287 0
2.402012 0.402664 0
2.191217 0.6958645 0
2.706845 0.6018207 0
2.964649 0.5473384 0
2.654864 0.3531648 0
2.107113 0.1972888 0
2.355002 0.1527609 0
2.065066 -0.05385873 0
2.149163 0.447197 0
2.850803 0.04884432 0
2.602894 0.1032789 0
2.793857 -0.2022759 0
2.907731 0.2986981 0
2.308 -0.09838358 0
2.550934 -0.1478562 0
3.480122 0.4236954 0
3.413634 0.175011 0
3.222419 0.4879147 0
3.737816 0.355124 0
3.995981 0.2833653 0
3.666622 0.1059959 0
3.098755 -0.01055722 0
3.346745 -0.07499577 0
3.036747 -0.2616873 0
3.160642 0.239285 0
3.522374 -0.3961511 0
3.594609 -0.1446755 0
3.76548 -0.4713605 0
3.27957 -0.3262413 0
3.918796 0.03176479 0
3.842109 -0.2198081 0
4.504264 0.1161511 0
4.419768 -0.1335872 0
4.251199 0.2037168 0
4.756034 0.02699358 0
5.007343 -0.06212073 0
4.670332 -0.2208082 0
4.08951 -0.2999435 0
4.337516 -0.3838098 0
4.009532 -0.5511997 0
4.169409 -0.0485285 0
4.502832 -0.7195343 0
4.586533 -0.4696613 0
4.752113 -0.8048963 0
4.255207 -0.6344426 0
4.921052 -0.3079681 0
4.836465 -0.5556211 0
4.889139 1.121531 0
4.786829 0.8695872 0
4.640044 1.225092 0
5.139061 1.018218 0
5.389899 0.9148883 0
5.036908 0.7698976 0
4.438551 0.7141908 0
4.687999 0.6174821 0
4.341383 0.4576516 0
4.537756 0.9698353 0
4.845184 0.2742814 0
4.93877 0.5218307 0
5.096703 0.1823805 0
4.593393 0.3660474 0
5.28793 0.670378 0
5.19011 0.4263165 0
5.329655 2.127392 0
5.215318 1.876155 0
5.08024 2.242409 0
5.579657 2.012509 0
5.830244 1.897484 0
5.465314 1.763752 0
4.854339 1.73455 0
5.103604 1.624778 0
4.745614 1.48001 0
4.965974 1.988686 0
5.604293 1.405332 0
5.353582 1.51513 0
5.495498 1.159886 0
5.715966 1.651202 0
4.994793 1.373247 0
5.244735 1.266628 0
5.807698 3.130964 0
5.685631 2.880277 0
5.558023 3.253167 0
6.057672 3.008916 0
6.307969 2.886749 0
5.935628 2.759607 0
5.315534 2.748612 0
5.565087 2.629454 0
5.196853 2.495717 0
5.436012 3.001096 0
6.065539 2.391288 0
5.81509 2.510438 0
5.946859 2.144179 0
6.186004 2.638811 0
5.446338 2.378492 0
5.696341 2.261405 0
6.305123 4.132522 0
6.180196 3.882406 0
6.054913 4.256906 0
6.555851 4.008094 0
6.806998 3.882477 0
6.430279 3.758007 0
5.805502 3.756004 0
6.055308 3.632024 0
5.681295 3.504815 0
5.930199 4.006689 0
6.555284 3.3838 0
6.305198 3.508045 0
6.431147 3.13509 0
6.680288 3.632831 0
5.931018 3.381535 0
6.180945 3.258379 0
0.3827987 0.7445511 0
0.5154502 0.8643971 0
0.5055946 0.6157646 0
0.2576271 0.871909 0
0.1303904 0.9980608 0
0.3903222 0.9925992 0
0.7732554 0.8521081 0
0.6505048 0.9827375 0
0.9107818 0.9679763 0
0.6381943 0.7347008 0
0.2480098 0.3731213 0
0.1251643 0.4998234 0
0.3755233 0.4952449 0
0.1229192 0.2495848 0
0 0.125 0
0 0.375 0
0.1274193 0.7495347 0
0 0.625 0
0 0.875 0
0.2526738 0.6230729 0
0.6136255 0.2348872 0
0.4860205 0.1146602 0
0.4958352 0.36585 0
0.7289455 0.102393 0
0.841789 -0.0316456 0
0.6013438 -0.01689376 0
0.2431125 0.1220863 0
0.360827 -0.007080688 0
0.1200557 -0.00176854 0
0.3682743 0.2446982 0
0.7584788 0.6034551 0
0.8762805 0.4706513 0
0.6259021 0.4854364 0
0.8935347 0.7199316 0
1.031064 0.834866 0
1.011335 0.586201 0
0.8590306 0.2201239 0
0.9916019 0.336297 0
0.971874 0.08515088 0
0.7437074 0.3535514 0
1.264186 0.5639917 0
1.126655 0.4509186 0
1.377027 0.4262287 0
1.148865 0.7002042 0
1.104444 0.2003937 0
1.239495 0.3140858 0
1.659528 0.6458662 0
1.546687 0.7854895 0
1.517037 0.5368223 0
1.804499 0.7533601 0
1.95195 0.8593038 0
1.691657 0.8939134 0
1.288875 0.8126586 0
1.431366 0.9235627 0
1.171073 0.9482512 0
1.404196 0.6755156 0
1.595267 0.146051 0
1.457736 0.03576802 0
1.487387 0.2869151 0
1.700668 0.003636721 0
1.803588 -0.1403273 0
1.563136 -0.1057162 0
1.214805 0.06293978 0
1.322685 -0.07606471 0
1.082234 -0.05137301 0
1.349856 0.1757022 0
1.769888 0.5046925 0
1.877768 0.3619683 0
1.627398 0.3965786 0
1.914859 0.6112566 0
2.062311 0.7162702 0
2.022739 0.4676024 0
1.840678 0.11144 0
1.983168 0.2176938 0
1.9436 -0.03345406 0
1.735278 0.2547844 0
2.425521 0.5271511 0
2.577939 0.6271967 0
2.528437 0.3785354 0
2.320124 0.6742176 0
2.212244 0.8197327 0
2.472542 0.7751964 0
2.835749 0.5752007 0
2.732841 0.7256886 0
2.99312 0.6712092 0
2.680853 0.4776457 0
2.231057 0.1756444 0
2.128138 0.3223979 0
2.378506 0.2778675 0
2.086089 0.07186988 0
2.17019 0.571686 0
2.275588 0.425551 0
2.726844 0.07668093 0
2.87927 0.1739262 0
2.628877 0.2283767 0
2.82233 -0.07655499 0
2.915309 -0.2313513 0
2.974772 0.01976674 0
2.936189 0.4231674 0
3.034179 0.2696066 0
3.09354 0.5182391 0
2.781294 0.326552 0
2.3315 0.02734398 0
2.429467 -0.1225018 0
2.478947 0.128639 0
2.186533 -0.0755022 0
2.044042 -0.1798969 0
2.2845 -0.2244213 0
2.672398 -0.1744466 0
2.524958 -0.273894 0
2.765394 -0.3283172 0
2.576912 -0.02213152 0
3.446914 0.2995109 0
3.608955 0.3899042 0
3.54015 0.141097 0
3.35128 0.4563873 0
3.253321 0.6117957 0
3.513331 0.5475974 0
3.866798 0.3195441 0
3.773031 0.4790479 0
4.032863 0.4076285 0
3.702378 0.2308097 0
3.22275 -0.04213822 0
3.129719 0.1145217 0
3.380242 0.05017298 0
3.067758 -0.1359594 0
3.191535 0.3637454 0
3.287127 0.2077467 0
3.558517 -0.2703222 0
3.400963 -0.3605183 0
3.470712 -0.1091615 0
3.643855 -0.4331195 0
3.726879 -0.5973284 0
3.486148 -0.5222133 0
3.158167 -0.2933073 0
3.245956 -0.4523122 0
3.005748 -0.3877401 0
3.313176 -0.200472 0
3.792906 0.06961412 0
3.880386 -0.094053 0
3.630659 -0.0192127 0
3.957401 0.1576492 0
4.124194 0.2452853 0
4.044233 -0.00765454 0
3.803848 -0.3455527 0
3.965779 -0.259316 0
[...]
POINT_DATA 2465
VECTORS displacement float
0 0 0
0 0 0
0.04092734 -0.04126554 0
-0.03798924 -0.04088813 0
0.08209649 -0.1598614 0
-0.07618495 -0.1594924 0
0.1232358 -0.3578863 0
-0.1144137 -0.357397 0
0.165856 -0.6265135 0
-0.1522768 -0.6366466 0
0.1773762 -0.9846551 0
-0.1653073 -0.9723348 0
0.5681401 -0.5946922 0
0.5680056 -1.015363 0
1.013753 -0.5726693 0
1.013758 -1.037437 0
1.494761 -0.5594159 0
1.494664 -1.050634 0
1.992188 -0.5558226 0
2 -1.058317 0
0.0007119581 -0.009029177 0
0.002212298 -0.08797634 0
0.003690503 -0.2462579 0
0.005492736 -0.4838718 0
0.003336673 -0.8017448 0
0.3620027 -0.805396 0
0.784024 -0.8050437 0
1.250101 -0.8050573 0
1.742674 -0.8048462 0
0.02039187 -0.01173121 0
0 0 0
-0.01889571 -0.01137918 0
0.001467991 -0.03859587 0
0.06151148 -0.09064192 0
-0.05708961 -0.09027053 0
0.002953253 -0.1571969 0
0.1026918 -0.2489357 0
0.004484879 -0.3551575 0
-0.09526997 -0.2485395 0
0.1432223 -0.4861813 0
-0.133969 -0.4865919 0
0.004919259 -0.633558 0
0.174235 -0.8041158 0
-0.1633444 -0.8021865 0
0.003960718 -0.9742589 0
0.5664156 -0.8050951 0
0.3635983 -0.6083833 0
0.3643569 -1.000535 0
1.012653 -0.8050503 0
0.7854138 -0.5826027 0
0.7853891 -1.02753 0
1.49416 -0.805057 0
1.250927 -0.5649448 0
1.250927 -1.045144 0
1.992782 -0.8047463 0
1.742913 -0.5563563 0
1.742812 -1.054194 0
0.005074764 -0.002335484 0
0.01586748 -0.02206489 0
-0.004373888 -0.002231004 0
-0.01367471 -0.02187336 0
0.02653084 -0.06151996 0
-0.0228499 -0.06133205 0
0.03719347 -0.1208186 0
-0.0320271 -0.1206346 0
0.04785558 -0.1999606 0
0.05852001 -0.2989723 0
-0.04120532 -0.1997739 0
-0.05038011 -0.2987241 0
0.06921801 -0.4177856 0
0.08008032 -0.5551096 0
-0.05952846 -0.417564 0
-0.06883525 -0.5572849 0
0.08575642 -0.7151427 0
0.08836275 -0.8909252 0
-0.07711015 -0.7169688 0
-0.08057095 -0.8873646 0
0.4629225 -0.7035014 0
0.4628557 -0.9066722 0
0.2646466 -0.7114597 0
0.2670982 -0.8988247 0
0.8974084 -0.6913388 0
0.8974087 -0.9187626 0
0.6741165 -0.6968513 0
0.6740507 -0.9132537 0
1.371624 -0.6836259 0
1.371604 -0.9264812 0
1.130651 -0.6869312 0
1.130656 -0.9231729 0
1.867602 -0.6803477 0
1.868235 -0.929464 0
1.618169 -0.6814029 0
1.617996 -0.9286769 0
0.01050771 -0.009765237 0
0.01032454 -0.004199405 0
0.03063901 -0.0240234 0
0.0003394551 -0.001785449 0
0 0 0
0 0 0
-0.009061167 -0.009592053 0
-0.02843181 -0.0236473 0
-0.009520681 -0.003934675 0
0.001091871 -0.02133832 0
0.02120019 -0.03931191 0
-0.01826272 -0.03912074 0
0.001840817 -0.0608064 0
0.03186211 -0.08868907 0
0.07180344 -0.1227713 0
0.05121956 -0.06347287 0
-0.02743831 -0.08850345 0
-0.06663781 -0.1224018 0
-0.04754088 -0.06309879 0
0.002583219 -0.1201065 0
0.04252464 -0.1579085 0
-0.03661609 -0.1577253 0
0.05318675 -0.2469799 0
0.09239249 -0.2019144 0
0.1129852 -0.3009306 0
0.0033218 -0.1992473 0
0.004069332 -0.2982287 0
-0.05495721 -0.3556296 0
0.06385985 -0.3559302 0
-0.04579424 -0.2467755 0
-0.08572913 -0.2015402 0
-0.104818 -0.3004855 0
0.07463324 -0.4843123 0
0.1333583 -0.4197226 0
0.1528075 -0.5565138 0
0.004973658 -0.4170342 0
-0.06414092 -0.4847165 0
-0.1436055 -0.5591482 0
-0.1241301 -0.4193694 0
0.005645545 -0.5559229 0
0.08390677 -0.6314693 0
-0.07335935 -0.6350234 0
0.0872561 -0.8026357 0
0.1716851 -0.7142406 0
0.1758453 -0.894604 0
0.003873359 -0.7160708 0
-0.07954719 -0.8016556 0
-0.165098 -0.8873294 0
-0.1590708 -0.718115 0
0.003414219 -0.8884405 0
0.08949201 -0.9783489 0
-0.08059525 -0.9725426 0
0.4624196 -0.805221 0
0.5668955 -0.7000287 0
0.566767 -0.9100969 0
0.3622341 -0.7073131 0
0.2656374 -0.6155408 0
0.464252 -0.6014067 0
0.2657025 -0.8052185 0
0.3627952 -0.9029315 0
0.4642366 -1.008299 0
0.2687639 -0.9923875 0
0.8970986 -0.805047 0
1.012926 -0.6889972 0
1.012931 -0.9211056 0
0.7843774 -0.6939562 0
0.6752591 -0.5883932 0
0.8983392 -0.5773585 0
0.7843591 -0.9161444 0
0.6751809 -1.021746 0
0.8983379 -1.032757 0
0.6737053 -0.8050503 0
1.371442 -0.8050625 0
1.494339 -0.6823823 0
1.494259 -0.9277206 0
1.250307 -0.6851409 0
1.131374 -0.568533 0
1.372145 -0.5619019 0
1.250308 -0.9249648 0
1.13138 -1.041568 0
1.372118 -1.048164 0
1.130413 -0.8050531 0
1.867858 -0.804651 0
1.992243 -0.6803233 0
1.99448 -0.9295667 0
1.742753 -0.6807024 0
1.618479 -0.5575378 0
1.867595 -0.5558757 0
1.742622 -0.9293141 0
1.618294 -1.052598 0
1.868378 -1.055849 0
1.617989 -0.8050044 0
0.01154622 -0.006278091 0
0.004131485 -0.0049432 0
0.003679311 -0.0009274188 0
0.01935233 -0.01613178 0
0.0271595 -0.03089209 0
0.007043057 -0.01477227 0
-0.0009462651 -0.0002256379 0
-0.003078592 -0.004872698 0
-0.003316229 -0.0008371154 0
0.001276794 -0.0002487245 0
-0.0175175 -0.01585315 0
-0.005234564 -0.01467902 0
-0.02459066 -0.03060603 0
-0.01043919 -0.006045994 0
0.009907944 -0.02955324 0
-0.007345761 -0.02945652 0
0.01276034 -0.0492838 0
0.01561166 -0.07397296 0
0.03496969 -0.05061733 0
-0.009450979 -0.04918876 0
-0.03166077 -0.05033431 0
-0.01155859 -0.07387958 0
0.05059265 -0.1049551 0
0.01846287 -0.1036226 0
0.05840452 -0.1395647 0
0.04278103 -0.07530585 0
-0.04579816 -0.1046777 0
-0.01366735 -0.1035303 0
-0.05286648 -0.1392888 0
-0.03872961 -0.07502617 0
0.02131366 -0.1382325 0
-0.01577666 -0.138141 0
0.07403127 -0.2236713 0
0.02701232 -0.222336 0
0.0662172 -0.1791355 0
0.08184505 -0.2731793 0
0.08964911 -0.3276616 0
0.02986383 -0.2718352 0
-0.01788695 -0.1777112 0
-0.01999819 -0.2222391 0
-0.05993398 -0.1788587 0
0.02416347 -0.177803 0
-0.02419729 -0.3261557 0
-0.02210644 -0.2717211 0
-0.08114262 -0.3272759 0
0.03273102 -0.3263019 0
-0.0670001 -0.2233836 0
-0.07406648 -0.2728562 0
0.1051221 -0.4513046 0
0.03863368 -0.449989 0
0.09741882 -0.3870853 0
0.1128164 -0.519876 0
0.1209808 -0.5916347 0
0.04162213 -0.5190041 0
-0.02624494 -0.3855572 0
-0.02825519 -0.4499958 0
-0.08825336 -0.3866873 0
0.0356424 -0.385715 0
-0.1026256 -0.5211511 0
-0.03039055 -0.5196755 0
-0.1095195 -0.5963605 0
-0.09543021 -0.4512413 0
0.04379571 -0.5932352 0
-0.03289139 -0.5948081 0
0.1292645 -0.7588489 0
0.04476817 -0.7585872 0
0.1261992 -0.6712832 0
0.1310342 -0.8480064 0
0.1323426 -0.9371207 0
0.04533187 -0.8458082 0
-0.03548984 -0.6749435 0
-0.03748448 -0.7588098 0
-0.115468 -0.6761997 0
0.04440851 -0.6735285 0
-0.1221681 -0.8445343 0
-0.03846724 -0.8446613 0
-0.1228873 -0.9298963 0
-0.1197926 -0.7594426 0
0.04605167 -0.9329681 0
-0.03853537 -0.9306211 0
0.5141391 -0.7534687 0
0.4118292 -0.7554128 0
0.5150444 -0.6499076 0
0.5140614 -0.8567824 0
0.5148991 -0.9601117 0
0.4119079 -0.8551024 0
0.3135507 -0.6608092 0
0.3129995 -0.7575179 0
0.2163827 -0.6673484 0
0.4127561 -0.6551647 0
0.2201839 -0.8507186 0
0.3137699 -0.8531693 0
0.2217033 -0.9426195 0
0.2183929 -0.7589526 0
0.4129303 -0.954622 0
0.3151098 -0.9486835 0
0.9546553 -0.7476079 0
0.8403176 -0.748845 0
0.95524 -0.6325908 0
0.9546574 -0.8624909 0
0.9552438 -0.9775156 0
0.840314 -0.861248 0
0.729339 -0.6404499 0
0.7286041 -0.7502223 0
0.6206141 -0.64499 0
0.8409743 -0.6363136 0
0.7292932 -0.9696678 0
0.7285824 -0.8598699 0
0.620498 -0.9651145 0
0.8409661 -0.9737983 0
0.6197928 -0.7517531 0
0.6197352 -0.8583718 0
1.432698 -0.7440359 0
1.310631 -0.7447234 0
1.433023 -0.6218327 0
1.432672 -0.8660845 0
1.432969 -0.9882511 0
1.310628 -0.8653931 0
1.190534 -0.6263876 0
1.190087 -0.7455461 0
1.071853 -0.6292827 0
1.311012 -0.623904 0
1.190539 -0.9837125 0
1.19009 -0.8645624 0
1.071859 -0.9808208 0
1.311004 -0.9861889 0
1.071338 -0.7465079 0
1.071341 -0.8635954 0
1.930123 -0.7424781 0
1.805196 -0.7425941 0
1.929913 -0.6180943 0
1.930851 -0.866906 0
1.931998 -0.9925232 0
1.805279 -0.8669933 0
1.680502 -0.6189955 0
1.680308 -0.7429764 0
1.556295 -0.6201852 0
1.805199 -0.6183114 0
1.680284 -0.9912004 0
1.680198 -0.8669548 0
1.556147 -0.9899101 0
1.805288 -0.9921692 0
1.556018 -0.7434646 0
1.555945 -0.8666208 0
0.00779872 -0.005448929 0
0.01545024 -0.01060288 0
0.005594626 -0.009235423 0
0.007627127 -0.003090999 0
0.005390416 -0.001939189 0
0.01532217 -0.007400835 0
0.02325538 -0.02289191 0
0.02550484 -0.01726254 0
0.0357818 -0.03202367 0
0.01319433 -0.01529924 0
-0.001990171 -0.001878721 0
0.0001642783 -0.000176573 0
0.0005232525 -0.004755095 0
-0.00208078 -0.0004151586 0
0 0 0
0 0 0
0.00241926 -0.0004652524 0
0 0 0
0 0 0
0.002673827 -0.00192712 0
-0.0113745 -0.01511283 0
-0.01397954 -0.01033982 0
-0.004164828 -0.009150015 0
-0.02105454 -0.02260702 0
-0.033211 -0.0316456 0
-0.02365616 -0.01689376 0
-0.006887464 -0.002913654 0
-0.01417304 -0.007080688 0
-0.004944274 -0.00176854 0
-0.006725711 -0.005301848 0
0.008478795 -0.02154492 0
0.001280478 -0.02934873 0
0.0009021452 -0.01456362 0
0.01853474 -0.03006844 0
0.03106435 -0.04013402 0
0.01133453 -0.03879903 0
-0.01596944 -0.02987613 0
-0.008398104 -0.038703 0
-0.02812598 -0.03984912 0
-0.006292562 -0.02144863 0
0.01418601 -0.06100834 0
0.001654674 -0.0490814 0
0.002026645 -0.07377134 0
0.02386542 -0.04979576 0
-0.0205561 -0.04960626 0
-0.01050455 -0.06091421 0
0.03452781 -0.1041338 0
0.04668682 -0.08951046 0
0.01703729 -0.08817772 0
0.05449853 -0.1216399 0
0.07694972 -0.1406962 0
0.06665741 -0.1060866 0
0.03887529 -0.06234141 0
0.05636555 -0.07643731 0
0.04607346 -0.05174881 0
0.02919643 -0.07448443 0
-0.02973268 -0.103949 0
-0.0422639 -0.08923198 0
-0.0126129 -0.08808492 0
-0.04933237 -0.1213633 0
-0.07141162 -0.1403273 0
-0.06186376 -0.1057162 0
-0.03519526 -0.06206022 0
-0.05231538 -0.07606471 0
-0.04276571 -0.05137301 0
-0.02514402 -0.0742978 0
0.01988835 -0.1203075 0
0.002768395 -0.1380317 0
0.002397829 -0.1034214 0
0.03985909 -0.1387434 0
0.06231071 -0.1587298 0
0.02273872 -0.1573976 0
-0.03432156 -0.13856 0
-0.01683165 -0.1573062 0
-0.05640038 -0.1584541 0
-0.01472192 -0.1202156 0
0.05052107 -0.2228489 0
0.07793851 -0.2478033 0
0.02843724 -0.2464646 0
0.07012407 -0.2007824 0
0.08724401 -0.1802673 0
0.09754194 -0.2248036 0
0.08574942 -0.2997993 0
0.1078406 -0.2743114 0
0.1181198 -0.3287908 0
0.05585292 -0.2723543 0
-0.01894254 -0.1993556 0
0.003137712 -0.1776021 0
0.003505805 -0.2221325 0
-0.03891068 -0.1781301 0
0.04519013 -0.178314 0
0.02558793 -0.199449 0
-0.02315552 -0.2983191 0
0.004270108 -0.3260738 0
0.003877456 -0.2716233 0
-0.0526701 -0.326555 0
-0.08469145 -0.3563513 0
-0.025228 -0.3552333 0
0.06118866 -0.3268326 0
0.03417877 -0.3553934 0
0.09354045 -0.3567609 0
0.03129409 -0.298448 0
-0.04349991 -0.222656 0
-0.07053294 -0.2475018 0
-0.02105326 -0.246361 0
-0.0634672 -0.2005022 0
-0.08095754 -0.1798969 0
-0.09049975 -0.2244213 0
-0.07760221 -0.2994466 0
-0.1000415 -0.273894 0
-0.1096057 -0.3283172 0
-0.04808787 -0.2721315 0
0.07191419 -0.4504891 0
0.1089554 -0.4850958 0
0.04015028 -0.483903 0
0.1012798 -0.4186127 0
0.1283207 -0.3882043 0
0.1383307 -0.4524026 0
0.1167981 -0.5554559 0
0.1480315 -0.5209521 0
0.1578625 -0.5923715 0
0.07737796 -0.5191903 0
-0.02724996 -0.4171382 0
0.00471873 -0.3854783 0
0.005241757 -0.449827 0
-0.05724211 -0.3859594 0
0.06653524 -0.3862546 0
0.03712688 -0.4172533 0
-0.06648294 -0.5203222 0
-0.09903684 -0.4855183 0
-0.02928844 -0.4841615 0
-0.1061449 -0.5581195 0
-0.1481205 -0.5973284 0
-0.1388517 -0.5222133 0
-0.0918327 -0.4183073 0
-0.1290437 -0.4523122 0
-0.1192525 -0.3877401 0
-0.06182444 -0.450472 0
0.04290587 -0.5553859 0
0.005386265 -0.594053 0
0.005659483 -0.5192127 0
0.08240092 -0.5923508 0
0.1241939 -0.6297147 0
0.04423269 -0.6326545 0
-0.07115181 -0.5955527 0
-0.03422121 -0.634316 0
-0.1126583 -0.6357678 0
-0.03159417 -0.5565648 0
0.08656842 -0.7586569 0
0.130255 -0.8033497 0
0.04503409 -0.8020861 0
0.1279468 -0.7147064 0
0.1695601 -0.6699066 0
0.1731442 -0.7590332 0
0.1316998 -0.8926499 0
0.1751009 -0.8493502 0
0.1765666 -0.9397479 0
0.08783746 -0.846796 0
-0.03660159 -0.7165107 0
0.004369174 -0.6742957 0
0.003521181 -0.7586452 0
-0.07537235 -0.6755532 0
0.08487593 -0.6725477 0
0.04455525 -0.7156158 0
-0.08022134 -0.8444901 0
-0.1212218 -0.8018612 0
-0.03810536 -0.801608 0
-0.1226901 -0.8872649 0
-0.1652934 -0.9298835 0
-0.1645008 -0.844717 0
-0.1178659 -0.7174876 0
-0.1615421 -0.7599204 0
-0.1559594 -0.6769633 0
-0.0785118 -0.7590743 0
0.04566493 -0.8895065 0
0.00364003 -0.931563 0
0.003307199 -0.8450935 0
0.08889191 -0.9348353 0
0.1330601 -0.9812644 0
0.04651602 -0.9759972 0
-0.08066078 -0.9300963 0
-0.03835284 -0.9731307 0
-0.1228996 -0.9723487 0
-0.03859627 -0.8877358 0
0.4625586 -0.7544102 0
0.5139897 -0.8051458 0
0.4117408 -0.8053141 0
0.5144949 -0.7017266 0
0.5674227 -0.6474041 0
0.5665573 -0.7525851 0
0.5143634 -0.9084194 0
0.5664821 -0.8575867 0
0.5672753 -0.9626717 0
0.4625183 -0.8559581 0
0.3130555 -0.7093676 0
0.3628048 -0.6579239 0
0.3619631 -0.7564664 0
0.2648162 -0.6639179 0
0.2169038 -0.6195066 0
0.3143622 -0.6119278 0
0.4634909 -0.6524953 0
0.4135342 -0.6048728 0
0.5157853 -0.598006 0
0.4121765 -0.7053598 0
0.266391 -0.8520119 0
0.2193515 -0.8047811 0
0.3132853 -0.8053984 0
0.2209417 -0.8966936 0
0.2173153 -0.7132424 0
0.2650653 -0.7584204 0
0.4123091 -0.9048469 0
0.3634731 -0.951698 0
0.3622986 -0.8541872 0
0.4634282 -0.9574291 0
0.5156671 -1.011921 0
0.4137791 -1.004496 0
0.2678611 -0.9456309 0
0.3160145 -0.9964694 0
0.2225751 -0.9884059 0
0.3143791 -0.9009195 0
0.8971759 -0.7482093 0
0.9545831 -0.8050488 0
0.840234 -0.8050451 0
0.9548742 -0.6901336 0
1.01327 -0.630885 0
1.012721 -0.7470408 0
0.9548777 -0.9199686 0
1.012724 -0.8630605 0
1.013276 -0.9792198 0
0.8971762 -0.8618867 0
0.7288832 -0.6953688 0
0.78481 -0.6383304 0
0.7841153 -0.7495156 0
0.674596 -0.6426706 0
0.6213054 -0.5914834 0
0.7299728 -0.585431 0
0.8977961 -0.6344004 0
0.8415478 -0.5799113 0
0.9557527 -0.5749446 0
0.8405643 -0.692613 0
0.7288452 -0.9147328 0
0.7847874 -0.971785 0
0.7841048 -0.8605753 0
0.6745178 -0.9674451 0
0.6211936 -1.018634 0
0.7299252 -1.02471 0
0.897796 -0.9757084 0
0.8415379 -1.030212 0
0.9557558 -1.035166 0
0.840558 -0.9174878 0
0.6738188 -0.750967 0
0.619665 -0.8050652 0
0.728503 -0.8050445 0
0.6201106 -0.6984042 0
0.6200114 -0.9117082 0
0.6737808 -0.8591343 0
1.371491 -0.7443635 0
1.432646 -0.8050626 0
1.310582 -0.8050601 0
1.432824 -0.6829706 0
1.49452 -0.6209545 0
1.494218 -0.7437377 0
1.43278 -0.9271357 0
1.494172 -0.8663739 0
1.494424 -0.9891296 0
1.371479 -0.8657568 0
1.190254 -0.6860016 0
1.250565 -0.6250944 0
1.250152 -0.7451174 0
1.130952 -0.6277836 0
1.072305 -0.5705324 0
1.190926 -0.5666707 0
1.371843 -0.6228165 0
1.311345 -0.563355 0
1.433296 -0.5605874 0
1.310774 -0.6843492 0
1.190259 -0.9241033 0
1.250566 -0.9850027 0
1.250153 -0.8649948 0
1.130958 -0.9823185 0
1.072311 -1.039571 0
1.19093 -1.043425 0
1.371818 -0.9872715 0
1.311335 -1.046723 0
1.433239 -1.049466 0
1.310769 -0.9257575 0
1.130471 -0.7460096 0
1.071275 -0.8050517 0
1.190033 -0.805055 0
1.07153 -0.6879297 0
1.071536 -0.9221737 0
1.130474 -0.864096 0
1.867694 -0.7424933 0
1.930409 -0.8046519 0
1.805241 -0.8047346 0
1.929969 -0.680307 0
1.992191 -0.6180899 0
1.992417 -0.7425286 0
1.931437 -0.9293936 0
1.993422 -0.8670488 0
1.99634 -0.9926512 0
1.868065 -0.8669194 0
1.680394 -0.6810146 0
1.742821 -0.6185887 0
1.742708 -0.7427643 0
1.618306 -0.6195299 0
1.556504 -0.5583956 0
1.680635 -0.5568552 0
1.867577 -0.6181545 0
1.805251 -0.5560375 0
1.929909 -0.5558253 0
1.805178 -0.6804775 0
1.680203 -0.9290411 0
1.742667 -0.9917247 0
1.742641 -0.8670161 0
1.618108 -0.990598 0
1.556359 -1.051674 0
1.680447 -1.053427 0
1.868277 -0.992488 0
1.805416 -1.054961 0
1.932178 -1.057116 0
1.805281 -0.9294667 0
1.618062 -0.7432116 0
1.555952 -0.8050403 0
1.68024 -0.8049409 0
1.556134 -0.6818597 0
1.556008 -0.928235 0
1.617961 -0.8668181 0
0.01132294 -0.007836818 0
0.007998172 -0.004102588 0
0.01567732 -0.008820655 0
0.007003301 -0.007153966 0
0.002737277 -0.006792107 0
0.004905156 -0.003466713 0
0.006726621 -0.002384324 0
0.00465929 -0.001509376 0
0.00214047 -0.0004737168 0
0.01120102 -0.005073397 0
0.02468812 -0.01988485 0
0.01791803 -0.01890459 0
0.02017504 -0.01374255 0
0.02920907 -0.02726414 0
0.03373332 -0.03588494 0
0.02120475 -0.02628599 0
0.009084429 -0.01207472 0
0.01114653 -0.01822703 0
0.003562157 -0.01170407 0
0.01462633 -0.01275956 0
-0.0006021372 -0.0008210366 0
-0.002325522 -0.000990179 0
-0.0001878395 0.0001062173 0
-0.001047941 -0.003123154 0
-0.001501216 -0.006752945 0
-0.004030527 -0.003374071 0
-0.001282937 -9.022956e-05 0
-0.004128448 -0.001404811 0
-0.001947044 -0.0004173983 0
-0.0007270854 4.988055e-05 0
0.0008901994 3.301111e-05 0
0.002834908 -0.001045694 0
0.000349092 0.0001007984 0
0.001452159 -0.0001211507 0
0.001910342 -0.003152785 0
0.001104136 -0.0008385781 0
-0.01298376 -0.01253276 0
-0.01590614 -0.01866816 0
-0.01851253 -0.0134251 0
-0.007459183 -0.01193925 0
-0.001946812 -0.01165911 0
-0.009145099 -0.01808442 0
-0.02682216 -0.0269322 0
-0.01882286 -0.02604662 0
-0.03097929 -0.03555301 0
-0.02266527 -0.01955659 0
-0.01025173 -0.00482117 0
-0.00709518 -0.003936103 0
-0.01437175 -0.008526141 0
-0.00614139 -0.002205235 0
-0.00575451 -0.00703416 0
-0.01004954 -0.00763124 0
0.005189971 -0.02525257 0
0.01319781 -0.02561442 0
0.005997894 -0.03388063 0
0.004379012 -0.01786039 0
0.02448994 -0.03490792 0
0.01524467 -0.03423957 0
-0.0124943 -0.03409523 0
-0.0108213 -0.02546971 0
-0.003248978 -0.03383234 0
-0.02173743 -0.03466894 0
-0.002383908 -0.01781274 0
-0.002816865 -0.02520414 0
0.007610528 -0.0548513 0
0.01933571 -0.05520824 0
0.006804487 -0.0437464 0
0.00841633 -0.06719603 0
0.009222011 -0.08078084 0
0.02138127 -0.06755268 0
0.02777501 -0.04477098 0
0.03106034 -0.05587483 0
0.03825874 -0.04574755 0
0.01729027 -0.04410395 0
-0.01416704 -0.04396088 0
-0.01584035 -0.05506654 0
-0.003681602 -0.04369858 0
-0.02465145 -0.04453366 0
-0.03513544 -0.04541714 0
-0.0275655 -0.05563937 0
-0.004548864 -0.06714915 0
-0.01751422 -0.06741215 0
-0.00498309 -0.0807343 0
-0.004114959 -0.05480398 0
0.04091736 -0.09662835 0
0.04420312 -0.1126931 0
0.05636209 -0.09760477 0
0.02547254 -0.09596202 0
0.01002761 -0.09560576 0
0.02751815 -0.1120268 0
0.06541405 -0.1309742 0
0.04748891 -0.1299978 0
0.06994036 -0.1495192 0
0.06088801 -0.1136695 0
0.04731036 -0.06919557 0
0.03434591 -0.06821914 0
0.05183622 -0.08278011 0
0.04278451 -0.05685128 0
0.0234269 -0.08113729 0
0.03763161 -0.08180369 0
-0.03630824 -0.0963968 0
-0.03922257 -0.1124624 0
-0.05175385 -0.09728037 0
-0.02086278 -0.09582317 0
-0.005417493 -0.09555949 0
-0.02253724 -0.1118886 0
-0.06006207 -0.1306516 0
-0.04213687 -0.129768 0
-0.06421586 -0.149197 0
-0.05590802 -0.113346 0
-0.04344527 -0.06886871 0
-0.03047967 -0.06798528 0
-0.04759961 -0.08245461 0
-0.03929065 -0.05652274 0
-0.01918841 -0.08099769 0
-0.03339393 -0.0815711 0
0.01163843 -0.1289758 0
0.02956366 -0.1293317 0
0.0124435 -0.1475209 0
0.0108331 -0.1116707 0
0.05077474 -0.1485427 0
0.03160903 -0.1478767 0
-0.02588649 -0.1477394 0
-0.0242118 -0.1291941 0
-0.006721669 -0.1474752 0
-0.04505113 -0.1483134 0
-0.005852026 -0.1116247 0
-0.006286723 -0.12893 0
0.06391922 -0.2351318 0
0.06063289 -0.2116218 0
0.08805085 -0.2361093 0
0.03978898 -0.2344634 0
0.01566098 -0.2341039 0
0.03774401 -0.2109547 0
0.07899443 -0.1903309 0
0.0573467 -0.1893542 0
0.0744671 -0.1693046 0
0.08352242 -0.2125988 0
0.09710498 -0.2868613 0
0.07049148 -0.2858828 0
0.09257894 -0.2608633 0
0.1016258 -0.3141024 0
0.1061362 -0.3425833 0
0.07377636 -0.3131238 0
0.04183464 -0.2592147 0
0.04388199 -0.2852091 0
0.01646653 -0.2588515 0
0.06720553 -0.2598853 0
-0.007592637 -0.1882853 0
-0.02923648 -0.1885491 0
-0.00715696 -0.1672604 0
-0.008028571 -0.2105499 0
-0.008464282 -0.2340539 0
-0.03091171 -0.2108126 0
-0.0479653 -0.1680985 0
-0.05087935 -0.1891227 0
-0.06836921 -0.1689819 0
-0.02756138 -0.1675246 0
0.0336542 -0.1676619 0
0.03569917 -0.1886877 0
0.01324824 -0.1673061 0
0.05406066 -0.168328 0
0.01485668 -0.2105974 0
0.01405259 -0.1883315 0
-0.009754254 -0.3120003 0
-0.03760141 -0.3122437 0
-0.01016789 -0.3404606 0
-0.009329733 -0.2847792 0
-0.008898676 -0.2587971 0
-0.0359332 -0.2850299 0
-0.06836535 -0.3412562 0
-0.06544909 -0.3128053 0
-0.09746336 -0.3421389 0
-0.03926325 -0.3406974 0
0.04798897 -0.340923 0
0.04593265 -0.312446 0
0.01891564 -0.3405389 0
0.07705912 -0.3416053 0
0.01727523 -0.2848403 0
0.01809016 -0.3120698 0
-0.056707 -0.2348858 0
-0.05379325 -0.2113855 0
-0.08082574 -0.2357683 0